<?xml version="1.0" encoding="UTF-8"?>

<!-- generated on 2025-10-04 17:25:31 by Eclipse SUMO GUI Version 1.24.0
<sumoConfiguration xmlns:xsi="http://www.w3.org/2001/XMLSchema-instance" xsi:noNamespaceSchemaLocation="http://sumo.dlr.de/xsd/sumoConfiguration.xsd">

    <input>
        <net-file value="/Users/nicoloagostara/Sumo/2025-10-04-17-25-24/osm.net.xml.gz"/>
        <route-files value="/Users/nicoloagostara/Sumo/2025-10-04-17-25-24/osm.passenger.trips.xml"/>
        <additional-files value="/Users/nicoloagostara/Sumo/2025-10-04-17-25-24/output.add.xml"/>
    </input>

    <output>
        <tripinfo-output value="/Users/nicoloagostara/Sumo/2025-10-04-17-25-24/tripinfos.xml"/>
        <statistic-output value="/Users/nicoloagostara/Sumo/2025-10-04-17-25-24/stats.xml"/>
    </output>

    <processing>
        <ignore-route-errors value="true"/>
        <tls.actuated.jam-threshold value="30"/>
    </processing>

    <routing>
        <device.rerouting.adaptation-steps value="18"/>
        <device.rerouting.adaptation-interval value="10"/>
    </routing>

    <report>
        <verbose value="true"/>
        <duration-log.statistics value="true"/>
        <no-step-log value="true"/>
    </report>

    <gui_only>
        <gui-settings-file value="/Users/nicoloagostara/Sumo/2025-10-04-17-25-24/osm.view.xml"/>
    </gui_only>

</sumoConfiguration>
-->

<tripinfos xmlns:xsi="http://www.w3.org/2001/XMLSchema-instance" xsi:noNamespaceSchemaLocation="http://sumo.dlr.de/xsd/tripinfo_file.xsd">
    <tripinfo id="veh0" depart="0.00" departLane="408534466#0_0" departPos="5.10" departSpeed="14.72" departDelay="0.00" arrival="139.00" arrivalLane="-1264561679#0_0" arrivalPos="10.15" arrivalSpeed="13.80" duration="139.00" routeLength="638.03" waitingTime="71.00" waitingCount="4" stopTime="0.00" timeLoss="95.19" rerouteNo="1" devices="tripinfo_veh0 routing_veh0" vType="veh_passenger" speedFactor="1.06" vaporized=""/>
    <tripinfo id="veh1" depart="18.00" departLane="1056324193#1_0" departPos="5.10" departSpeed="0.00" departDelay="0.88" arrival="178.00" arrivalLane="-92142133_0" arrivalPos="0.20" arrivalSpeed="5.78" duration="160.00" routeLength="1040.40" waitingTime="38.00" waitingCount="3" stopTime="0.00" timeLoss="64.35" rerouteNo="1" devices="tripinfo_veh1 routing_veh1" vType="veh_passenger" speedFactor="0.94" vaporized=""/>
    <tripinfo id="veh2" depart="35.00" departLane="4803560#4_0" departPos="5.10" departSpeed="0.00" departDelay="0.76" arrival="192.00" arrivalLane="4743830#2_0" arrivalPos="43.51" arrivalSpeed="13.30" duration="157.00" routeLength="835.61" waitingTime="57.00" waitingCount="5" stopTime="0.00" timeLoss="91.69" rerouteNo="1" devices="tripinfo_veh2 routing_veh2" vType="veh_passenger" speedFactor="1.01" vaporized=""/>
    <tripinfo id="veh5" depart="86.00" departLane="-141885660#0_0" departPos="5.10" departSpeed="0.00" departDelay="0.39" arrival="216.00" arrivalLane="-5772448#0_0" arrivalPos="105.99" arrivalSpeed="6.84" duration="130.00" routeLength="701.89" waitingTime="24.00" waitingCount="4" stopTime="0.00" timeLoss="53.56" rerouteNo="1" devices="tripinfo_veh5 routing_veh5" vType="veh_passenger" speedFactor="0.83" vaporized=""/>
    <tripinfo id="veh6" depart="103.00" departLane="429288348_0" departPos="5.10" departSpeed="0.00" departDelay="0.27" arrival="217.00" arrivalLane="33693799#1_0" arrivalPos="44.20" arrivalSpeed="13.37" duration="114.00" routeLength="936.03" waitingTime="15.00" waitingCount="2" stopTime="0.00" timeLoss="40.94" rerouteNo="1" devices="tripinfo_veh6 routing_veh6" vType="veh_passenger" speedFactor="1.05" vaporized=""/>
    <tripinfo id="veh3" depart="52.00" departLane="15675937#0_0" departPos="5.10" departSpeed="15.04" departDelay="0.63" arrival="256.00" arrivalLane="-136617339#1_0" arrivalPos="23.56" arrivalSpeed="8.79" duration="204.00" routeLength="1413.53" waitingTime="61.00" waitingCount="4" stopTime="0.00" timeLoss="98.80" rerouteNo="1" devices="tripinfo_veh3 routing_veh3" vType="veh_passenger" speedFactor="1.08" vaporized=""/>
    <tripinfo id="veh8" depart="137.00" departLane="143722134#1_0" departPos="5.10" departSpeed="0.00" departDelay="0.03" arrival="262.00" arrivalLane="-4803560#1_0" arrivalPos="14.25" arrivalSpeed="12.12" duration="125.00" routeLength="1004.27" waitingTime="6.00" waitingCount="2" stopTime="0.00" timeLoss="32.73" rerouteNo="1" devices="tripinfo_veh8 routing_veh8" vType="veh_passenger" speedFactor="0.94" vaporized=""/>
    <tripinfo id="veh7" depart="120.00" departLane="-699663268#5_0" departPos="5.10" departSpeed="0.00" departDelay="0.15" arrival="277.00" arrivalLane="371344296#3_0" arrivalPos="3.71" arrivalSpeed="12.08" duration="157.00" routeLength="756.48" waitingTime="48.00" waitingCount="3" stopTime="0.00" timeLoss="71.02" rerouteNo="1" devices="tripinfo_veh7 routing_veh7" vType="veh_passenger" speedFactor="0.89" vaporized=""/>
    <tripinfo id="veh11" depart="189.00" departLane="536908734#2_1" departPos="5.10" departSpeed="0.00" departDelay="0.66" arrival="279.00" arrivalLane="526016651_0" arrivalPos="44.30" arrivalSpeed="13.07" duration="90.00" routeLength="746.97" waitingTime="16.00" waitingCount="1" stopTime="0.00" timeLoss="33.15" rerouteNo="1" devices="tripinfo_veh11 routing_veh11" vType="veh_passenger" speedFactor="1.03" vaporized=""/>
    <tripinfo id="veh4" depart="69.00" departLane="-699663268#3_0" departPos="5.10" departSpeed="0.00" departDelay="0.51" arrival="307.00" arrivalLane="334810149#0_0" arrivalPos="6.23" arrivalSpeed="13.41" duration="238.00" routeLength="1488.03" waitingTime="73.00" waitingCount="7" stopTime="0.00" timeLoss="128.60" rerouteNo="1" devices="tripinfo_veh4 routing_veh4" vType="veh_passenger" speedFactor="1.03" vaporized=""/>
    <tripinfo id="veh13" depart="223.00" departLane="146977152#1_0" departPos="0.50" departSpeed="0.00" departDelay="0.42" arrival="309.00" arrivalLane="33694486#1_0" arrivalPos="15.41" arrivalSpeed="11.19" duration="86.00" routeLength="544.31" waitingTime="29.00" waitingCount="3" stopTime="0.00" timeLoss="49.06" rerouteNo="1" devices="tripinfo_veh13 routing_veh13" vType="veh_passenger" speedFactor="1.12" vaporized=""/>
    <tripinfo id="veh14" depart="240.00" departLane="548370029_2" departPos="5.10" departSpeed="0.00" departDelay="0.30" arrival="315.00" arrivalLane="4398951#1_0" arrivalPos="25.99" arrivalSpeed="12.97" duration="75.00" routeLength="511.90" waitingTime="16.00" waitingCount="2" stopTime="0.00" timeLoss="35.71" rerouteNo="1" devices="tripinfo_veh14 routing_veh14" vType="veh_passenger" speedFactor="0.99" vaporized=""/>
    <tripinfo id="veh9" depart="155.00" departLane="69184467#2_0" departPos="5.10" departSpeed="0.00" departDelay="0.90" arrival="317.00" arrivalLane="14389224#2_0" arrivalPos="34.16" arrivalSpeed="10.99" duration="162.00" routeLength="1055.73" waitingTime="21.00" waitingCount="4" stopTime="0.00" timeLoss="54.72" rerouteNo="1" devices="tripinfo_veh9 routing_veh9" vType="veh_passenger" speedFactor="0.86" vaporized=""/>
    <tripinfo id="veh16" depart="274.00" departLane="4734972#0_0" departPos="5.10" departSpeed="12.20" departDelay="0.05" arrival="354.00" arrivalLane="-146778072#1_0" arrivalPos="1.07" arrivalSpeed="5.28" duration="80.00" routeLength="632.88" waitingTime="0.00" waitingCount="0" stopTime="0.00" timeLoss="10.03" rerouteNo="1" devices="tripinfo_veh16 routing_veh16" vType="veh_passenger" speedFactor="0.88" vaporized=""/>
    <tripinfo id="veh12" depart="206.00" departLane="332455374#2_1" departPos="0.10" departSpeed="0.00" departDelay="0.54" arrival="357.00" arrivalLane="871499634_0" arrivalPos="0.20" arrivalSpeed="14.24" duration="151.00" routeLength="1053.77" waitingTime="40.00" waitingCount="5" stopTime="0.00" timeLoss="76.30" rerouteNo="1" devices="tripinfo_veh12 routing_veh12" vType="veh_passenger" speedFactor="1.05" vaporized=""/>
    <tripinfo id="veh15" depart="257.00" departLane="548370035#1_2" departPos="2.78" departSpeed="0.00" departDelay="0.17" arrival="367.00" arrivalLane="35164364_0" arrivalPos="138.46" arrivalSpeed="12.44" duration="110.00" routeLength="1065.11" waitingTime="9.00" waitingCount="2" stopTime="0.00" timeLoss="24.76" rerouteNo="1" devices="tripinfo_veh15 routing_veh15" vType="veh_passenger" speedFactor="0.93" vaporized=""/>
    <tripinfo id="veh19" depart="326.00" departLane="408534466#0_0" departPos="5.10" departSpeed="16.09" departDelay="0.69" arrival="419.00" arrivalLane="146977152#1_0" arrivalPos="0.50" arrivalSpeed="6.24" duration="93.00" routeLength="769.03" waitingTime="11.00" waitingCount="4" stopTime="0.00" timeLoss="43.21" rerouteNo="1" devices="tripinfo_veh19 routing_veh19" vType="veh_passenger" speedFactor="1.16" vaporized=""/>
    <tripinfo id="veh21" depart="360.00" departLane="-548370033#1_1" departPos="0.96" departSpeed="0.00" departDelay="0.44" arrival="502.00" arrivalLane="526016651_0" arrivalPos="44.30" arrivalSpeed="13.49" duration="142.00" routeLength="703.77" waitingTime="62.00" waitingCount="4" stopTime="0.00" timeLoss="91.76" rerouteNo="1" devices="tripinfo_veh21 routing_veh21" vType="veh_passenger" speedFactor="1.01" vaporized=""/>
    <tripinfo id="veh20" depart="343.00" departLane="408534466#0_0" departPos="5.10" departSpeed="14.14" departDelay="0.57" arrival="510.00" arrivalLane="429288348_0" arrivalPos="12.04" arrivalSpeed="11.59" duration="167.00" routeLength="731.83" waitingTime="80.00" waitingCount="5" stopTime="0.00" timeLoss="113.70" rerouteNo="1" devices="tripinfo_veh20 routing_veh20" vType="veh_passenger" speedFactor="1.02" vaporized=""/>
    <tripinfo id="veh17" depart="292.00" departLane="-699663268#9_0" departPos="5.10" departSpeed="7.84" departDelay="0.93" arrival="517.00" arrivalLane="1264561679#0_0" arrivalPos="10.15" arrivalSpeed="11.92" duration="225.00" routeLength="1333.83" waitingTime="74.00" waitingCount="3" stopTime="0.00" timeLoss="108.32" rerouteNo="1" devices="tripinfo_veh17 routing_veh17" vType="veh_passenger" speedFactor="0.94" vaporized=""/>
    <tripinfo id="veh18" depart="309.00" departLane="-28630236#0_0" departPos="5.10" departSpeed="0.00" departDelay="0.81" arrival="519.00" arrivalLane="-942456035#0_0" arrivalPos="32.94" arrivalSpeed="12.69" duration="210.00" routeLength="1058.71" waitingTime="89.00" waitingCount="6" stopTime="0.00" timeLoss="125.30" rerouteNo="1" devices="tripinfo_veh18 routing_veh18" vType="veh_passenger" speedFactor="0.94" vaporized=""/>
    <tripinfo id="veh22" depart="377.00" departLane="334810149#0_2" departPos="5.10" departSpeed="0.00" departDelay="0.32" arrival="534.00" arrivalLane="4748724#1_0" arrivalPos="72.66" arrivalSpeed="7.36" duration="157.00" routeLength="1225.84" waitingTime="19.00" waitingCount="3" stopTime="0.00" timeLoss="49.77" rerouteNo="1" devices="tripinfo_veh22 routing_veh22" vType="veh_passenger" speedFactor="0.97" vaporized=""/>
    <tripinfo id="veh10" depart="172.00" departLane="548370033#0_1" departPos="5.10" departSpeed="0.00" departDelay="0.78" arrival="544.00" arrivalLane="37684124#0_0" arrivalPos="52.23" arrivalSpeed="14.41" duration="372.00" routeLength="495.88" waitingTime="320.00" waitingCount="2" stopTime="0.00" timeLoss="334.22" rerouteNo="1" devices="tripinfo_veh10 routing_veh10" vType="veh_passenger" speedFactor="1.09" vaporized=""/>
    <tripinfo id="veh23" depart="394.00" departLane="548370032_2" departPos="5.10" departSpeed="0.00" departDelay="0.20" arrival="581.00" arrivalLane="543698012#0_0" arrivalPos="35.14" arrivalSpeed="12.04" duration="187.00" routeLength="1027.00" waitingTime="66.00" waitingCount="4" stopTime="0.00" timeLoss="100.22" rerouteNo="1" devices="tripinfo_veh23 routing_veh23" vType="veh_passenger" speedFactor="0.89" vaporized=""/>
    <tripinfo id="veh27" depart="463.00" departLane="4398951#0_1" departPos="2.19" departSpeed="0.00" departDelay="0.71" arrival="592.00" arrivalLane="20020535#3_1" arrivalPos="79.68" arrivalSpeed="12.72" duration="129.00" routeLength="906.33" waitingTime="32.00" waitingCount="2" stopTime="0.00" timeLoss="55.05" rerouteNo="1" devices="tripinfo_veh27 routing_veh27" vType="veh_passenger" speedFactor="0.95" vaporized=""/>
    <tripinfo id="veh28" depart="480.00" departLane="334810149#0_0" departPos="5.10" departSpeed="0.00" departDelay="0.59" arrival="595.00" arrivalLane="1121964966#0_1" arrivalPos="78.84" arrivalSpeed="14.59" duration="115.00" routeLength="985.12" waitingTime="11.00" waitingCount="2" stopTime="0.00" timeLoss="33.32" rerouteNo="1" devices="tripinfo_veh28 routing_veh28" vType="veh_passenger" speedFactor="1.13" vaporized=""/>
    <tripinfo id="veh25" depart="429.00" departLane="1264561679#0_0" departPos="5.10" departSpeed="0.00" departDelay="0.96" arrival="603.00" arrivalLane="1121964966#0_1" arrivalPos="78.84" arrivalSpeed="11.03" duration="174.00" routeLength="1288.76" waitingTime="20.00" waitingCount="2" stopTime="0.00" timeLoss="46.15" rerouteNo="1" devices="tripinfo_veh25 routing_veh25" vType="veh_passenger" speedFactor="0.87" vaporized=""/>
    <tripinfo id="veh26" depart="446.00" departLane="-60505837#1_0" departPos="0.20" departSpeed="0.00" departDelay="0.84" arrival="633.00" arrivalLane="699663268#7_0" arrivalPos="128.61" arrivalSpeed="6.96" duration="187.00" routeLength="1422.40" waitingTime="23.00" waitingCount="3" stopTime="0.00" timeLoss="51.57" rerouteNo="1" devices="tripinfo_veh26 routing_veh26" vType="veh_passenger" speedFactor="0.92" vaporized=""/>
    <tripinfo id="veh32" depart="548.00" departLane="-25614745#2_0" departPos="5.10" departSpeed="13.96" departDelay="0.11" arrival="654.00" arrivalLane="15676559#3_0" arrivalPos="24.59" arrivalSpeed="13.51" duration="106.00" routeLength="735.31" waitingTime="30.00" waitingCount="2" stopTime="0.00" timeLoss="50.61" rerouteNo="1" devices="tripinfo_veh32 routing_veh32" vType="veh_passenger" speedFactor="1.01" vaporized=""/>
    <tripinfo id="veh29" depart="497.00" departLane="33693780#5_1" departPos="5.10" departSpeed="0.00" departDelay="0.47" arrival="662.00" arrivalLane="577252054_0" arrivalPos="100.42" arrivalSpeed="4.48" duration="165.00" routeLength="954.63" waitingTime="30.00" waitingCount="3" stopTime="0.00" timeLoss="60.71" rerouteNo="1" devices="tripinfo_veh29 routing_veh29" vType="veh_passenger" speedFactor="0.93" vaporized=""/>
    <tripinfo id="veh31" depart="531.00" departLane="-33695402#1_0" departPos="5.10" departSpeed="0.00" departDelay="0.23" arrival="682.00" arrivalLane="461211028_0" arrivalPos="10.60" arrivalSpeed="14.06" duration="151.00" routeLength="1160.78" waitingTime="30.00" waitingCount="4" stopTime="0.00" timeLoss="68.73" rerouteNo="1" devices="tripinfo_veh31 routing_veh31" vType="veh_passenger" speedFactor="1.15" vaporized=""/>
    <tripinfo id="veh35" depart="600.00" departLane="4730406#0_1" departPos="5.10" departSpeed="14.16" departDelay="0.74" arrival="717.00" arrivalLane="33693780#6_1" arrivalPos="2.13" arrivalSpeed="13.37" duration="117.00" routeLength="962.79" waitingTime="26.00" waitingCount="3" stopTime="0.00" timeLoss="48.53" rerouteNo="1" devices="tripinfo_veh35 routing_veh35" vType="veh_passenger" speedFactor="1.02" vaporized=""/>
    <tripinfo id="veh36" depart="617.00" departLane="-35162766#0_0" departPos="5.10" departSpeed="0.00" departDelay="0.62" arrival="724.00" arrivalLane="25983494#1_0" arrivalPos="62.76" arrivalSpeed="13.31" duration="107.00" routeLength="840.78" waitingTime="8.00" waitingCount="1" stopTime="0.00" timeLoss="31.01" rerouteNo="1" devices="tripinfo_veh36 routing_veh36" vType="veh_passenger" speedFactor="0.97" vaporized=""/>
    <tripinfo id="veh33" depart="566.00" departLane="821304189#0_0" departPos="0.20" departSpeed="0.00" departDelay="0.98" arrival="737.00" arrivalLane="550432837#0_0" arrivalPos="38.68" arrivalSpeed="16.02" duration="171.00" routeLength="981.37" waitingTime="75.00" waitingCount="5" stopTime="0.00" timeLoss="108.57" rerouteNo="1" devices="tripinfo_veh33 routing_veh33" vType="veh_passenger" speedFactor="1.17" vaporized=""/>
    <tripinfo id="veh24" depart="411.00" departLane="-699663268#9_0" departPos="5.10" departSpeed="6.88" departDelay="0.08" arrival="741.00" arrivalLane="-1411243431_1" arrivalPos="28.67" arrivalSpeed="11.24" duration="330.00" routeLength="1878.20" waitingTime="95.00" waitingCount="7" stopTime="0.00" timeLoss="149.65" rerouteNo="1" devices="tripinfo_veh24 routing_veh24" vType="veh_passenger" speedFactor="0.83" vaporized=""/>
    <tripinfo id="veh39" depart="668.00" departLane="27331142_0" departPos="5.10" departSpeed="12.51" departDelay="0.25" arrival="744.00" arrivalLane="-548370033#0_0" arrivalPos="24.20" arrivalSpeed="12.49" duration="76.00" routeLength="488.08" waitingTime="28.00" waitingCount="1" stopTime="0.00" timeLoss="35.65" rerouteNo="1" devices="tripinfo_veh39 routing_veh39" vType="veh_passenger" speedFactor="0.90" vaporized=""/>
    <tripinfo id="veh34" depart="583.00" departLane="-1338300349_0" departPos="5.10" departSpeed="5.53" departDelay="0.86" arrival="746.00" arrivalLane="526016615#0_0" arrivalPos="28.66" arrivalSpeed="13.51" duration="163.00" routeLength="1297.20" waitingTime="10.00" waitingCount="2" stopTime="0.00" timeLoss="39.77" rerouteNo="1" devices="tripinfo_veh34 routing_veh34" vType="veh_passenger" speedFactor="0.99" vaporized=""/>
    <tripinfo id="veh41" depart="702.00" departLane="33695352#0_0" departPos="5.10" departSpeed="0.00" departDelay="0.01" arrival="750.00" arrivalLane="-4803560#0_0" arrivalPos="31.18" arrivalSpeed="12.18" duration="48.00" routeLength="395.02" waitingTime="1.00" waitingCount="1" stopTime="0.00" timeLoss="12.08" rerouteNo="1" devices="tripinfo_veh41 routing_veh41" vType="veh_passenger" speedFactor="0.96" vaporized=""/>
    <tripinfo id="veh30" depart="514.00" departLane="147759323#0_0" departPos="5.10" departSpeed="9.82" departDelay="0.35" arrival="757.00" arrivalLane="-821304189#0_0" arrivalPos="0.20" arrivalSpeed="3.48" duration="243.00" routeLength="2032.10" waitingTime="39.00" waitingCount="5" stopTime="0.00" timeLoss="94.09" rerouteNo="1" devices="tripinfo_veh30 routing_veh30" vType="veh_passenger" speedFactor="1.18" vaporized=""/>
    <tripinfo id="veh38" depart="651.00" departLane="550432833#0_0" departPos="5.10" departSpeed="0.00" departDelay="0.38" arrival="812.00" arrivalLane="1121964966#0_1" arrivalPos="78.84" arrivalSpeed="14.92" duration="161.00" routeLength="1300.72" waitingTime="27.00" waitingCount="4" stopTime="0.00" timeLoss="59.87" rerouteNo="1" devices="tripinfo_veh38 routing_veh38" vType="veh_passenger" speedFactor="1.10" vaporized=""/>
    <tripinfo id="veh42" depart="720.00" departLane="526016662#0_0" departPos="5.10" departSpeed="0.00" departDelay="0.89" arrival="828.00" arrivalLane="33693780#4_1" arrivalPos="4.40" arrivalSpeed="14.41" duration="108.00" routeLength="591.24" waitingTime="36.00" waitingCount="2" stopTime="0.00" timeLoss="67.79" rerouteNo="1" devices="tripinfo_veh42 routing_veh42" vType="veh_passenger" speedFactor="1.09" vaporized=""/>
    <tripinfo id="veh40" depart="685.00" departLane="5772448#0_0" departPos="5.10" departSpeed="8.58" departDelay="0.13" arrival="839.00" arrivalLane="550432841#1_0" arrivalPos="34.99" arrivalSpeed="14.23" duration="154.00" routeLength="951.61" waitingTime="47.00" waitingCount="5" stopTime="0.00" timeLoss="78.31" rerouteNo="1" devices="tripinfo_veh40 routing_veh40" vType="veh_passenger" speedFactor="1.03" vaporized=""/>
    <tripinfo id="veh44" depart="754.00" departLane="-136617339#1_0" departPos="5.10" departSpeed="0.00" departDelay="0.65" arrival="854.00" arrivalLane="670738521#0_0" arrivalPos="56.44" arrivalSpeed="8.23" duration="100.00" routeLength="769.55" waitingTime="18.00" waitingCount="2" stopTime="0.00" timeLoss="35.36" rerouteNo="1" devices="tripinfo_veh44 routing_veh44" vType="veh_passenger" speedFactor="1.04" vaporized=""/>
    <tripinfo id="veh43" depart="737.00" departLane="-1056324193#1_0" departPos="5.10" departSpeed="0.00" departDelay="0.77" arrival="887.00" arrivalLane="141887992#3_0" arrivalPos="0.20" arrivalSpeed="4.83" duration="150.00" routeLength="1093.87" waitingTime="18.00" waitingCount="2" stopTime="0.00" timeLoss="43.90" rerouteNo="1" devices="tripinfo_veh43 routing_veh43" vType="veh_passenger" speedFactor="1.04" vaporized=""/>
    <tripinfo id="veh45" depart="771.00" departLane="550432833#0_0" departPos="5.10" departSpeed="0.00" departDelay="0.52" arrival="899.00" arrivalLane="548370034_0" arrivalPos="28.70" arrivalSpeed="13.82" duration="128.00" routeLength="637.68" waitingTime="58.00" waitingCount="4" stopTime="0.00" timeLoss="84.86" rerouteNo="1" devices="tripinfo_veh45 routing_veh45" vType="veh_passenger" speedFactor="1.09" vaporized=""/>
    <tripinfo id="veh47" depart="805.00" departLane="-28951462#1_0" departPos="4.77" departSpeed="0.00" departDelay="0.28" arrival="908.00" arrivalLane="332455382#0_0" arrivalPos="0.75" arrivalSpeed="2.99" duration="103.00" routeLength="606.47" waitingTime="16.00" waitingCount="2" stopTime="0.00" timeLoss="38.34" rerouteNo="1" devices="tripinfo_veh47 routing_veh47" vType="veh_passenger" speedFactor="0.90" vaporized=""/>
    <tripinfo id="veh37" depart="634.00" departLane="221220159#0_0" departPos="5.10" departSpeed="0.00" departDelay="0.50" arrival="923.00" arrivalLane="821304189#0_1" arrivalPos="0.20" arrivalSpeed="6.26" duration="289.00" routeLength="1597.51" waitingTime="115.00" waitingCount="6" stopTime="0.00" timeLoss="185.37" rerouteNo="1" devices="tripinfo_veh37 routing_veh37" vType="veh_passenger" speedFactor="1.18" vaporized=""/>
    <tripinfo id="veh49" depart="839.00" departLane="25614748#0_0" departPos="5.10" departSpeed="11.81" departDelay="0.04" arrival="946.00" arrivalLane="33694459#1_0" arrivalPos="15.76" arrivalSpeed="11.21" duration="107.00" routeLength="927.09" waitingTime="2.00" waitingCount="1" stopTime="0.00" timeLoss="16.07" rerouteNo="1" devices="tripinfo_veh49 routing_veh49" vType="veh_passenger" speedFactor="0.85" vaporized=""/>
</tripinfos>
