<?xml version="1.0" encoding="UTF-8"?>

<!-- generated on 2025-10-05 01:20:59 by Eclipse SUMO GUI Version 1.24.0
<sumoConfiguration xmlns:xsi="http://www.w3.org/2001/XMLSchema-instance" xsi:noNamespaceSchemaLocation="http://sumo.dlr.de/xsd/sumoConfiguration.xsd">

    <input>
        <net-file value="testmap2/map.net.xml"/>
        <route-files value="testmap2/map.rou.xml"/>
    </input>

    <output>
        <tripinfo-output value="outputs/sarsa_standard_tripinfo.xml"/>
    </output>

    <processing>
        <waiting-time-memory value="10000"/>
    </processing>

    <traci_server>
        <remote-port value="57124"/>
    </traci_server>

</sumoConfiguration>
-->

<tripinfos xmlns:xsi="http://www.w3.org/2001/XMLSchema-instance" xsi:noNamespaceSchemaLocation="http://sumo.dlr.de/xsd/tripinfo_file.xsd">
    <tripinfo id="12" depart="18.00" departLane="548338017#0_0" departPos="0.13" departSpeed="0.00" departDelay="0.00" arrival="53.00" arrivalLane="27338864#0_1" arrivalPos="63.42" arrivalSpeed="13.94" duration="35.00" routeLength="242.11" waitingTime="1.00" waitingCount="1" stopTime="0.00" timeLoss="9.81" rerouteNo="0" devices="tripinfo_12" vType="DEFAULT_VEHTYPE" speedFactor="1.05" vaporized=""/>
    <tripinfo id="2" depart="3.00" departLane="559462248#0_0" departPos="5.10" departSpeed="0.00" departDelay="0.00" arrival="76.00" arrivalLane="-13949345#2_0" arrivalPos="116.89" arrivalSpeed="8.03" duration="73.00" routeLength="648.43" waitingTime="0.00" waitingCount="0" stopTime="0.00" timeLoss="10.02" rerouteNo="0" devices="tripinfo_2" vType="DEFAULT_VEHTYPE" speedFactor="1.01" vaporized=""/>
    <tripinfo id="51" depart="77.00" departLane="-145204590#1_0" departPos="5.10" departSpeed="0.00" departDelay="0.50" arrival="104.00" arrivalLane="138424035#0_0" arrivalPos="165.27" arrivalSpeed="15.31" duration="27.00" routeLength="209.91" waitingTime="2.00" waitingCount="1" stopTime="0.00" timeLoss="12.73" rerouteNo="0" devices="tripinfo_51" vType="DEFAULT_VEHTYPE" speedFactor="1.17" vaporized=""/>
    <tripinfo id="19" depart="29.00" departLane="-45156941#4_0" departPos="5.10" departSpeed="0.00" departDelay="0.50" arrival="108.00" arrivalLane="-562001220#1_0" arrivalPos="19.85" arrivalSpeed="9.43" duration="79.00" routeLength="246.40" waitingTime="41.00" waitingCount="2" stopTime="0.00" timeLoss="52.33" rerouteNo="0" devices="tripinfo_19" vType="DEFAULT_VEHTYPE" speedFactor="1.16" vaporized=""/>
    <tripinfo id="33" depart="50.00" departLane="-434329528#1_0" departPos="5.10" departSpeed="0.00" departDelay="0.50" arrival="124.00" arrivalLane="576802239#1_0" arrivalPos="166.58" arrivalSpeed="16.04" duration="74.00" routeLength="553.74" waitingTime="17.00" waitingCount="2" stopTime="0.00" timeLoss="36.25" rerouteNo="0" devices="tripinfo_33" vType="DEFAULT_VEHTYPE" speedFactor="1.17" vaporized=""/>
    <tripinfo id="14" depart="21.00" departLane="184558927#0_0" departPos="5.10" departSpeed="0.00" departDelay="0.00" arrival="131.00" arrivalLane="701273324#0_0" arrivalPos="45.94" arrivalSpeed="7.53" duration="110.00" routeLength="519.71" waitingTime="40.00" waitingCount="3" stopTime="0.00" timeLoss="60.88" rerouteNo="0" devices="tripinfo_14" vType="DEFAULT_VEHTYPE" speedFactor="0.99" vaporized=""/>
    <tripinfo id="4" depart="6.00" departLane="-4495238#3_0" departPos="5.10" departSpeed="0.00" departDelay="0.00" arrival="145.00" arrivalLane="145204590#0_1" arrivalPos="18.12" arrivalSpeed="8.99" duration="139.00" routeLength="985.73" waitingTime="44.00" waitingCount="2" stopTime="0.00" timeLoss="68.73" rerouteNo="0" devices="tripinfo_4" vType="DEFAULT_VEHTYPE" speedFactor="1.03" vaporized=""/>
    <tripinfo id="7" depart="11.00" departLane="-4495264#2_0" departPos="5.10" departSpeed="0.00" departDelay="0.50" arrival="157.00" arrivalLane="24232453#0_0" arrivalPos="52.27" arrivalSpeed="7.31" duration="146.00" routeLength="701.02" waitingTime="57.00" waitingCount="2" stopTime="0.00" timeLoss="74.82" rerouteNo="0" devices="tripinfo_7" vType="DEFAULT_VEHTYPE" speedFactor="0.89" vaporized=""/>
    <tripinfo id="44" depart="66.00" departLane="521436340#0_0" departPos="5.10" departSpeed="0.00" departDelay="0.00" arrival="170.00" arrivalLane="136125313#0_0" arrivalPos="173.70" arrivalSpeed="8.20" duration="104.00" routeLength="780.21" waitingTime="10.00" waitingCount="2" stopTime="0.00" timeLoss="29.78" rerouteNo="0" devices="tripinfo_44" vType="DEFAULT_VEHTYPE" speedFactor="1.04" vaporized=""/>
    <tripinfo id="48" depart="72.00" departLane="-1113744422#1_0" departPos="5.10" departSpeed="0.00" departDelay="0.00" arrival="183.00" arrivalLane="4479820#0_1" arrivalPos="36.59" arrivalSpeed="5.05" duration="111.00" routeLength="368.88" waitingTime="56.00" waitingCount="3" stopTime="0.00" timeLoss="78.56" rerouteNo="0" devices="tripinfo_48" vType="DEFAULT_VEHTYPE" speedFactor="0.88" vaporized=""/>
    <tripinfo id="39" depart="59.00" departLane="24232448#0_0" departPos="5.10" departSpeed="0.00" departDelay="0.50" arrival="193.00" arrivalLane="559462245#0_1" arrivalPos="73.88" arrivalSpeed="11.55" duration="134.00" routeLength="319.46" waitingTime="85.00" waitingCount="3" stopTime="0.00" timeLoss="101.20" rerouteNo="0" devices="tripinfo_39" vType="DEFAULT_VEHTYPE" speedFactor="0.90" vaporized=""/>
    <tripinfo id="32" depart="48.00" departLane="-576802239#0_0" departPos="5.10" departSpeed="0.00" departDelay="0.00" arrival="195.00" arrivalLane="-559462248#1_0" arrivalPos="134.55" arrivalSpeed="12.89" duration="147.00" routeLength="979.73" waitingTime="40.00" waitingCount="2" stopTime="0.00" timeLoss="67.96" rerouteNo="0" devices="tripinfo_32" vType="DEFAULT_VEHTYPE" speedFactor="1.01" vaporized=""/>
    <tripinfo id="13" depart="20.00" departLane="532158277#0_0" departPos="5.10" departSpeed="0.00" departDelay="0.50" arrival="197.00" arrivalLane="4495231#0_0" arrivalPos="61.46" arrivalSpeed="9.12" duration="177.00" routeLength="931.30" waitingTime="70.00" waitingCount="4" stopTime="0.00" timeLoss="111.02" rerouteNo="0" devices="tripinfo_13" vType="DEFAULT_VEHTYPE" speedFactor="1.12" vaporized=""/>
    <tripinfo id="6" depart="9.00" departLane="379622013#0_0" departPos="5.10" departSpeed="0.00" departDelay="0.00" arrival="198.00" arrivalLane="218971860#0_1" arrivalPos="103.76" arrivalSpeed="13.66" duration="189.00" routeLength="1301.43" waitingTime="64.00" waitingCount="3" stopTime="0.00" timeLoss="91.21" rerouteNo="0" devices="tripinfo_6" vType="DEFAULT_VEHTYPE" speedFactor="1.05" vaporized=""/>
    <tripinfo id="50" depart="75.00" departLane="-549356141#1_0" departPos="1.05" departSpeed="0.00" departDelay="0.00" arrival="198.00" arrivalLane="341018763#2_1" arrivalPos="28.82" arrivalSpeed="11.84" duration="123.00" routeLength="418.58" waitingTime="59.00" waitingCount="5" stopTime="0.00" timeLoss="80.53" rerouteNo="0" devices="tripinfo_50" vType="DEFAULT_VEHTYPE" speedFactor="0.85" vaporized=""/>
    <tripinfo id="77" depart="116.00" departLane="-45156942#3_0" departPos="5.10" departSpeed="0.00" departDelay="0.50" arrival="203.00" arrivalLane="-45156945_0" arrivalPos="29.38" arrivalSpeed="6.98" duration="87.00" routeLength="605.96" waitingTime="0.00" waitingCount="0" stopTime="0.00" timeLoss="11.15" rerouteNo="0" devices="tripinfo_77" vType="DEFAULT_VEHTYPE" speedFactor="0.98" vaporized=""/>
    <tripinfo id="17" depart="26.00" departLane="548917390#0_0" departPos="5.10" departSpeed="0.00" departDelay="0.50" arrival="205.00" arrivalLane="24232447#0_0" arrivalPos="92.16" arrivalSpeed="7.39" duration="179.00" routeLength="928.54" waitingTime="44.00" waitingCount="2" stopTime="0.00" timeLoss="63.91" rerouteNo="0" devices="tripinfo_17" vType="DEFAULT_VEHTYPE" speedFactor="0.94" vaporized=""/>
    <tripinfo id="35" depart="53.00" departLane="38892916#5_0" departPos="5.10" departSpeed="0.00" departDelay="0.50" arrival="207.00" arrivalLane="123171014#2_0" arrivalPos="28.40" arrivalSpeed="7.85" duration="154.00" routeLength="629.54" waitingTime="70.00" waitingCount="2" stopTime="0.00" timeLoss="87.21" rerouteNo="0" devices="tripinfo_35" vType="DEFAULT_VEHTYPE" speedFactor="1.02" vaporized=""/>
    <tripinfo id="61" depart="92.00" departLane="-1136952411#3_0" departPos="5.10" departSpeed="0.00" departDelay="0.50" arrival="211.00" arrivalLane="560707568#0_0" arrivalPos="1.71" arrivalSpeed="13.33" duration="119.00" routeLength="995.58" waitingTime="13.00" waitingCount="2" stopTime="0.00" timeLoss="32.15" rerouteNo="0" devices="tripinfo_61" vType="DEFAULT_VEHTYPE" speedFactor="1.12" vaporized=""/>
    <tripinfo id="45" depart="68.00" departLane="-123171014#2_0" departPos="5.10" departSpeed="0.00" departDelay="0.50" arrival="223.00" arrivalLane="1207089551#0_0" arrivalPos="3.33" arrivalSpeed="7.96" duration="155.00" routeLength="572.84" waitingTime="80.00" waitingCount="2" stopTime="0.00" timeLoss="101.57" rerouteNo="0" devices="tripinfo_45" vType="DEFAULT_VEHTYPE" speedFactor="1.09" vaporized=""/>
    <tripinfo id="60" depart="90.00" departLane="-1042405420#1_0" departPos="5.10" departSpeed="0.00" departDelay="0.00" arrival="224.00" arrivalLane="1019984136#0_0" arrivalPos="77.51" arrivalSpeed="8.89" duration="134.00" routeLength="843.64" waitingTime="36.00" waitingCount="2" stopTime="0.00" timeLoss="56.72" rerouteNo="0" devices="tripinfo_60" vType="DEFAULT_VEHTYPE" speedFactor="1.08" vaporized=""/>
    <tripinfo id="46" depart="69.00" departLane="965871658_0" departPos="5.10" departSpeed="0.00" departDelay="0.00" arrival="225.00" arrivalLane="184558927#4_0" arrivalPos="92.13" arrivalSpeed="7.31" duration="156.00" routeLength="731.15" waitingTime="43.00" waitingCount="1" stopTime="0.00" timeLoss="59.83" rerouteNo="0" devices="tripinfo_46" vType="DEFAULT_VEHTYPE" speedFactor="1.00" vaporized=""/>
    <tripinfo id="36" depart="54.00" departLane="560041133#0_0" departPos="5.10" departSpeed="0.00" departDelay="0.00" arrival="226.00" arrivalLane="13939717#0_0" arrivalPos="172.47" arrivalSpeed="7.70" duration="172.00" routeLength="946.08" waitingTime="66.00" waitingCount="2" stopTime="0.00" timeLoss="86.84" rerouteNo="0" devices="tripinfo_36" vType="DEFAULT_VEHTYPE" speedFactor="0.97" vaporized=""/>
    <tripinfo id="111" depart="167.00" departLane="-13856823#1_0" departPos="5.10" departSpeed="0.00" departDelay="0.50" arrival="230.00" arrivalLane="-41276562#3_0" arrivalPos="22.16" arrivalSpeed="11.07" duration="63.00" routeLength="269.98" waitingTime="20.00" waitingCount="2" stopTime="0.00" timeLoss="33.30" rerouteNo="0" devices="tripinfo_111" vType="DEFAULT_VEHTYPE" speedFactor="0.87" vaporized=""/>
    <tripinfo id="10" depart="15.00" departLane="601313557#0_0" departPos="5.10" departSpeed="0.00" departDelay="0.00" arrival="236.00" arrivalLane="1132425464#0_0" arrivalPos="4.00" arrivalSpeed="9.03" duration="221.00" routeLength="1053.75" waitingTime="94.00" waitingCount="4" stopTime="0.00" timeLoss="146.73" rerouteNo="0" devices="tripinfo_10" vType="DEFAULT_VEHTYPE" speedFactor="1.09" vaporized=""/>
    <tripinfo id="86" depart="129.00" departLane="134807812#4_0" departPos="5.10" departSpeed="0.00" departDelay="0.00" arrival="237.00" arrivalLane="13949328#0_0" arrivalPos="137.31" arrivalSpeed="7.61" duration="108.00" routeLength="441.42" waitingTime="45.00" waitingCount="1" stopTime="0.00" timeLoss="53.99" rerouteNo="0" devices="tripinfo_86" vType="DEFAULT_VEHTYPE" speedFactor="1.00" vaporized=""/>
    <tripinfo id="63" depart="95.00" departLane="-562001220#1_0" departPos="5.10" departSpeed="0.00" departDelay="0.50" arrival="240.00" arrivalLane="-1363263994#0_0" arrivalPos="147.20" arrivalSpeed="12.65" duration="145.00" routeLength="654.34" waitingTime="60.00" waitingCount="3" stopTime="0.00" timeLoss="80.33" rerouteNo="0" devices="tripinfo_63" vType="DEFAULT_VEHTYPE" speedFactor="0.99" vaporized=""/>
    <tripinfo id="76" depart="114.00" departLane="1019984136#0_0" departPos="5.10" departSpeed="0.00" departDelay="0.00" arrival="240.00" arrivalLane="24232453#0_0" arrivalPos="52.27" arrivalSpeed="6.26" duration="126.00" routeLength="813.58" waitingTime="32.00" waitingCount="2" stopTime="0.00" timeLoss="51.50" rerouteNo="0" devices="tripinfo_76" vType="DEFAULT_VEHTYPE" speedFactor="1.03" vaporized=""/>
    <tripinfo id="69" depart="104.00" departLane="-549356141#0_0" departPos="5.10" departSpeed="0.00" departDelay="0.50" arrival="241.00" arrivalLane="549020386#0_0" arrivalPos="193.29" arrivalSpeed="13.66" duration="137.00" routeLength="1132.63" waitingTime="17.00" waitingCount="1" stopTime="0.00" timeLoss="43.34" rerouteNo="0" devices="tripinfo_69" vType="DEFAULT_VEHTYPE" speedFactor="1.02" vaporized=""/>
    <tripinfo id="93" depart="140.00" departLane="-545985121#3_0" departPos="5.10" departSpeed="0.00" departDelay="0.50" arrival="243.00" arrivalLane="560108369#0_0" arrivalPos="33.96" arrivalSpeed="6.62" duration="103.00" routeLength="398.30" waitingTime="45.00" waitingCount="2" stopTime="0.00" timeLoss="62.81" rerouteNo="0" devices="tripinfo_93" vType="DEFAULT_VEHTYPE" speedFactor="0.92" vaporized=""/>
    <tripinfo id="97" depart="146.00" departLane="68429685#4_0" departPos="5.10" departSpeed="0.00" departDelay="0.50" arrival="243.00" arrivalLane="560330502_0" arrivalPos="47.19" arrivalSpeed="7.12" duration="97.00" routeLength="630.67" waitingTime="0.00" waitingCount="0" stopTime="0.00" timeLoss="13.21" rerouteNo="0" devices="tripinfo_97" vType="DEFAULT_VEHTYPE" speedFactor="0.91" vaporized=""/>
    <tripinfo id="15" depart="23.00" departLane="1193523318#0_0" departPos="5.10" departSpeed="0.00" departDelay="0.50" arrival="245.00" arrivalLane="23318289#2_0" arrivalPos="167.50" arrivalSpeed="12.12" duration="222.00" routeLength="596.35" waitingTime="131.00" waitingCount="4" stopTime="0.00" timeLoss="152.64" rerouteNo="0" devices="tripinfo_15" vType="DEFAULT_VEHTYPE" speedFactor="0.93" vaporized=""/>
    <tripinfo id="30" depart="45.00" departLane="548134664_0" departPos="3.27" departSpeed="0.00" departDelay="0.00" arrival="245.00" arrivalLane="4687956#0_0" arrivalPos="168.59" arrivalSpeed="15.77" duration="200.00" routeLength="1756.86" waitingTime="55.00" waitingCount="3" stopTime="0.00" timeLoss="87.00" rerouteNo="0" devices="tripinfo_30" vType="DEFAULT_VEHTYPE" speedFactor="1.18" vaporized=""/>
    <tripinfo id="67" depart="101.00" departLane="4576434_0" departPos="5.10" departSpeed="0.00" departDelay="0.50" arrival="273.00" arrivalLane="-218971860#3_0" arrivalPos="103.89" arrivalSpeed="5.55" duration="172.00" routeLength="664.97" waitingTime="69.00" waitingCount="3" stopTime="0.00" timeLoss="89.48" rerouteNo="0" devices="tripinfo_67" vType="DEFAULT_VEHTYPE" speedFactor="0.91" vaporized=""/>
    <tripinfo id="102" depart="153.00" departLane="-549356141#0_0" departPos="5.10" departSpeed="0.00" departDelay="0.00" arrival="274.00" arrivalLane="516074476#0_0" arrivalPos="9.44" arrivalSpeed="12.47" duration="121.00" routeLength="785.35" waitingTime="33.00" waitingCount="1" stopTime="0.00" timeLoss="47.04" rerouteNo="0" devices="tripinfo_102" vType="DEFAULT_VEHTYPE" speedFactor="0.97" vaporized=""/>
    <tripinfo id="0" depart="0.00" departLane="34859765#0_0" departPos="5.10" departSpeed="0.00" departDelay="0.00" arrival="281.00" arrivalLane="-1189352199#2_0" arrivalPos="66.25" arrivalSpeed="8.62" duration="281.00" routeLength="1839.59" waitingTime="49.00" waitingCount="3" stopTime="0.00" timeLoss="83.10" rerouteNo="0" devices="tripinfo_0" vType="DEFAULT_VEHTYPE" speedFactor="1.06" vaporized=""/>
    <tripinfo id="95" depart="147.00" departLane="218931349#0_0" departPos="5.10" departSpeed="0.00" departDelay="4.50" arrival="281.00" arrivalLane="-123171014#2_0" arrivalPos="28.95" arrivalSpeed="8.77" duration="134.00" routeLength="421.85" waitingTime="81.00" waitingCount="2" stopTime="0.00" timeLoss="101.64" rerouteNo="0" devices="tripinfo_95" vType="DEFAULT_VEHTYPE" speedFactor="1.06" vaporized=""/>
    <tripinfo id="38" depart="57.00" departLane="24154399#0_0" departPos="5.10" departSpeed="0.00" departDelay="0.00" arrival="285.00" arrivalLane="-558245726#1_0" arrivalPos="22.24" arrivalSpeed="8.52" duration="228.00" routeLength="469.25" waitingTime="150.00" waitingCount="5" stopTime="0.00" timeLoss="179.11" rerouteNo="0" devices="tripinfo_38" vType="DEFAULT_VEHTYPE" speedFactor="1.10" vaporized=""/>
    <tripinfo id="70" depart="105.00" departLane="134807812#4_0" departPos="5.10" departSpeed="0.00" departDelay="0.00" arrival="285.00" arrivalLane="-4495269#2_0" arrivalPos="75.50" arrivalSpeed="8.35" duration="180.00" routeLength="897.77" waitingTime="50.00" waitingCount="2" stopTime="0.00" timeLoss="72.72" rerouteNo="0" devices="tripinfo_70" vType="DEFAULT_VEHTYPE" speedFactor="1.02" vaporized=""/>
    <tripinfo id="55" depart="83.00" departLane="560041131#7_0" departPos="5.10" departSpeed="0.00" departDelay="0.50" arrival="289.00" arrivalLane="548917390#0_0" arrivalPos="11.91" arrivalSpeed="7.36" duration="206.00" routeLength="965.12" waitingTime="85.00" waitingCount="2" stopTime="0.00" timeLoss="112.37" rerouteNo="0" devices="tripinfo_55" vType="DEFAULT_VEHTYPE" speedFactor="1.00" vaporized=""/>
    <tripinfo id="28" depart="42.00" departLane="82086620#0_0" departPos="5.10" departSpeed="0.00" departDelay="0.00" arrival="290.00" arrivalLane="341018763#2_1" arrivalPos="28.82" arrivalSpeed="15.57" duration="248.00" routeLength="1162.08" waitingTime="130.00" waitingCount="4" stopTime="0.00" timeLoss="163.51" rerouteNo="0" devices="tripinfo_28" vType="DEFAULT_VEHTYPE" speedFactor="1.13" vaporized=""/>
    <tripinfo id="24" depart="36.00" departLane="-549356141#1_0" departPos="1.05" departSpeed="0.00" departDelay="0.00" arrival="293.00" arrivalLane="572394518#0_0" arrivalPos="25.91" arrivalSpeed="6.19" duration="257.00" routeLength="1333.08" waitingTime="88.00" waitingCount="5" stopTime="0.00" timeLoss="125.53" rerouteNo="0" devices="tripinfo_24" vType="DEFAULT_VEHTYPE" speedFactor="0.83" vaporized=""/>
    <tripinfo id="84" depart="126.00" departLane="532158278#0_0" departPos="5.10" departSpeed="0.00" departDelay="0.00" arrival="298.00" arrivalLane="-43068084#2_1" arrivalPos="95.12" arrivalSpeed="15.60" duration="172.00" routeLength="639.10" waitingTime="96.00" waitingCount="3" stopTime="0.00" timeLoss="122.54" rerouteNo="0" devices="tripinfo_84" vType="DEFAULT_VEHTYPE" speedFactor="1.15" vaporized=""/>
    <tripinfo id="119" depart="179.00" departLane="-5183081#1_0" departPos="5.10" departSpeed="0.00" departDelay="0.50" arrival="298.00" arrivalLane="123171014#2_0" arrivalPos="28.40" arrivalSpeed="8.06" duration="119.00" routeLength="475.85" waitingTime="60.00" waitingCount="2" stopTime="0.00" timeLoss="77.46" rerouteNo="0" devices="tripinfo_119" vType="DEFAULT_VEHTYPE" speedFactor="1.07" vaporized=""/>
    <tripinfo id="134" depart="201.00" departLane="-13949348#3_0" departPos="5.10" departSpeed="0.00" departDelay="0.00" arrival="298.00" arrivalLane="23627948#0_0" arrivalPos="243.48" arrivalSpeed="9.80" duration="97.00" routeLength="489.84" waitingTime="34.00" waitingCount="2" stopTime="0.00" timeLoss="47.82" rerouteNo="0" devices="tripinfo_134" vType="DEFAULT_VEHTYPE" speedFactor="1.23" vaporized=""/>
    <tripinfo id="74" depart="111.00" departLane="138424023#0_0" departPos="5.10" departSpeed="0.00" departDelay="0.00" arrival="301.00" arrivalLane="149255265#0_0" arrivalPos="24.76" arrivalSpeed="7.52" duration="190.00" routeLength="1219.59" waitingTime="28.00" waitingCount="3" stopTime="0.00" timeLoss="65.23" rerouteNo="0" devices="tripinfo_74" vType="DEFAULT_VEHTYPE" speedFactor="0.96" vaporized=""/>
    <tripinfo id="116" depart="174.00" departLane="134807808#0_0" departPos="5.10" departSpeed="0.00" departDelay="0.00" arrival="301.00" arrivalLane="24232449#0_0" arrivalPos="68.64" arrivalSpeed="9.44" duration="127.00" routeLength="486.84" waitingTime="62.00" waitingCount="2" stopTime="0.00" timeLoss="76.78" rerouteNo="0" devices="tripinfo_116" vType="DEFAULT_VEHTYPE" speedFactor="1.18" vaporized=""/>
    <tripinfo id="11" depart="17.00" departLane="-13939469#1_0" departPos="5.10" departSpeed="0.00" departDelay="0.50" arrival="318.00" arrivalLane="-13955367#2_0" arrivalPos="104.25" arrivalSpeed="5.15" duration="301.00" routeLength="677.06" waitingTime="187.00" waitingCount="8" stopTime="0.00" timeLoss="226.87" rerouteNo="0" devices="tripinfo_11" vType="DEFAULT_VEHTYPE" speedFactor="1.03" vaporized=""/>
    <tripinfo id="5" depart="8.00" departLane="-1169055178_0" departPos="5.10" departSpeed="0.00" departDelay="0.50" arrival="319.00" arrivalLane="-4393001#3_0" arrivalPos="96.12" arrivalSpeed="6.20" duration="311.00" routeLength="1299.31" waitingTime="136.00" waitingCount="5" stopTime="0.00" timeLoss="173.11" rerouteNo="0" devices="tripinfo_5" vType="DEFAULT_VEHTYPE" speedFactor="0.83" vaporized=""/>
    <tripinfo id="164" depart="246.00" departLane="521436341#0_0" departPos="5.10" departSpeed="0.00" departDelay="0.00" arrival="323.00" arrivalLane="-5183081#1_2" arrivalPos="54.15" arrivalSpeed="13.97" duration="77.00" routeLength="547.75" waitingTime="15.00" waitingCount="2" stopTime="0.00" timeLoss="35.34" rerouteNo="0" devices="tripinfo_164" vType="DEFAULT_VEHTYPE" speedFactor="1.05" vaporized=""/>
    <tripinfo id="187" depart="281.00" departLane="-190714064#1_0" departPos="5.10" departSpeed="0.00" departDelay="0.50" arrival="327.00" arrivalLane="136124103_0" arrivalPos="0.20" arrivalSpeed="12.12" duration="46.00" routeLength="503.73" waitingTime="0.00" waitingCount="0" stopTime="0.00" timeLoss="4.65" rerouteNo="0" devices="tripinfo_187" vType="DEFAULT_VEHTYPE" speedFactor="0.89" vaporized=""/>
    <tripinfo id="170" depart="255.00" departLane="576802246_0" departPos="5.10" departSpeed="0.00" departDelay="0.00" arrival="329.00" arrivalLane="-167403938#1_0" arrivalPos="40.76" arrivalSpeed="13.98" duration="74.00" routeLength="450.05" waitingTime="29.00" waitingCount="2" stopTime="0.00" timeLoss="42.12" rerouteNo="0" devices="tripinfo_170" vType="DEFAULT_VEHTYPE" speedFactor="1.09" vaporized=""/>
    <tripinfo id="1" depart="2.00" departLane="-552169908#0_0" departPos="5.10" departSpeed="0.00" departDelay="0.50" arrival="330.00" arrivalLane="-455142372#1_0" arrivalPos="133.68" arrivalSpeed="12.86" duration="328.00" routeLength="957.37" waitingTime="185.00" waitingCount="6" stopTime="0.00" timeLoss="219.26" rerouteNo="0" devices="tripinfo_1" vType="DEFAULT_VEHTYPE" speedFactor="0.94" vaporized=""/>
    <tripinfo id="54" depart="81.00" departLane="13952186#0_0" departPos="5.10" departSpeed="0.00" departDelay="0.00" arrival="330.00" arrivalLane="-371345227#1_0" arrivalPos="65.81" arrivalSpeed="13.71" duration="249.00" routeLength="848.28" waitingTime="148.00" waitingCount="4" stopTime="0.00" timeLoss="185.97" rerouteNo="0" devices="tripinfo_54" vType="DEFAULT_VEHTYPE" speedFactor="1.00" vaporized=""/>
    <tripinfo id="49" depart="74.00" departLane="427779184#0_0" departPos="5.10" departSpeed="0.00" departDelay="0.50" arrival="337.00" arrivalLane="218284019#0_0" arrivalPos="26.60" arrivalSpeed="10.85" duration="263.00" routeLength="1102.83" waitingTime="122.00" waitingCount="4" stopTime="0.00" timeLoss="152.16" rerouteNo="0" devices="tripinfo_49" vType="DEFAULT_VEHTYPE" speedFactor="0.85" vaporized=""/>
    <tripinfo id="156" depart="234.00" departLane="549356141#0_0" departPos="5.10" departSpeed="0.00" departDelay="0.00" arrival="340.00" arrivalLane="71167245#0_0" arrivalPos="7.11" arrivalSpeed="16.09" duration="106.00" routeLength="365.35" waitingTime="64.00" waitingCount="2" stopTime="0.00" timeLoss="78.38" rerouteNo="0" devices="tripinfo_156" vType="DEFAULT_VEHTYPE" speedFactor="1.18" vaporized=""/>
    <tripinfo id="47" depart="71.00" departLane="701273324#0_0" departPos="5.10" departSpeed="0.00" departDelay="0.50" arrival="347.00" arrivalLane="548338021#0_0" arrivalPos="53.46" arrivalSpeed="6.75" duration="276.00" routeLength="1429.27" waitingTime="70.00" waitingCount="2" stopTime="0.00" timeLoss="95.56" rerouteNo="0" devices="tripinfo_47" vType="DEFAULT_VEHTYPE" speedFactor="0.90" vaporized=""/>
    <tripinfo id="18" depart="27.00" departLane="43525657#0_0" departPos="5.10" departSpeed="0.00" departDelay="0.00" arrival="363.00" arrivalLane="-1210744482_0" arrivalPos="164.68" arrivalSpeed="6.43" duration="336.00" routeLength="1555.00" waitingTime="145.00" waitingCount="6" stopTime="0.00" timeLoss="194.44" rerouteNo="0" devices="tripinfo_18" vType="DEFAULT_VEHTYPE" speedFactor="0.94" vaporized=""/>
    <tripinfo id="21" depart="32.00" departLane="-13949345#2_0" departPos="5.10" departSpeed="0.00" departDelay="0.50" arrival="363.00" arrivalLane="-560041131#9_0" arrivalPos="60.31" arrivalSpeed="6.24" duration="331.00" routeLength="944.52" waitingTime="192.00" waitingCount="7" stopTime="0.00" timeLoss="235.46" rerouteNo="0" devices="tripinfo_21" vType="DEFAULT_VEHTYPE" speedFactor="1.01" vaporized=""/>
    <tripinfo id="90" depart="135.00" departLane="548917390#0_0" departPos="5.10" departSpeed="0.00" departDelay="0.00" arrival="364.00" arrivalLane="-549356141#0_0" arrivalPos="15.41" arrivalSpeed="7.37" duration="229.00" routeLength="1319.80" waitingTime="78.00" waitingCount="4" stopTime="0.00" timeLoss="111.19" rerouteNo="0" devices="tripinfo_90" vType="DEFAULT_VEHTYPE" speedFactor="1.02" vaporized=""/>
    <tripinfo id="136" depart="204.00" departLane="4483801#0_0" departPos="5.10" departSpeed="0.00" departDelay="0.00" arrival="365.00" arrivalLane="-4495237#1_0" arrivalPos="57.47" arrivalSpeed="14.71" duration="161.00" routeLength="1198.65" waitingTime="31.00" waitingCount="1" stopTime="0.00" timeLoss="69.42" rerouteNo="0" devices="tripinfo_136" vType="DEFAULT_VEHTYPE" speedFactor="1.12" vaporized=""/>
    <tripinfo id="167" depart="251.00" departLane="68429685#0_0" departPos="5.10" departSpeed="0.00" departDelay="0.50" arrival="365.00" arrivalLane="-560041131#9_0" arrivalPos="60.31" arrivalSpeed="7.37" duration="114.00" routeLength="452.58" waitingTime="45.00" waitingCount="2" stopTime="0.00" timeLoss="60.53" rerouteNo="0" devices="tripinfo_167" vType="DEFAULT_VEHTYPE" speedFactor="1.03" vaporized=""/>
    <tripinfo id="25" depart="38.00" departLane="379622012#0_0" departPos="5.10" departSpeed="0.00" departDelay="0.50" arrival="367.00" arrivalLane="280963233_0" arrivalPos="86.97" arrivalSpeed="10.82" duration="329.00" routeLength="1541.38" waitingTime="132.00" waitingCount="5" stopTime="0.00" timeLoss="180.77" rerouteNo="0" devices="tripinfo_25" vType="DEFAULT_VEHTYPE" speedFactor="0.87" vaporized=""/>
    <tripinfo id="85" depart="128.00" departLane="-13943878#1_0" departPos="5.10" departSpeed="0.00" departDelay="0.50" arrival="368.00" arrivalLane="1366477541_0" arrivalPos="28.98" arrivalSpeed="7.71" duration="240.00" routeLength="988.27" waitingTime="77.00" waitingCount="3" stopTime="0.00" timeLoss="105.99" rerouteNo="0" devices="tripinfo_85" vType="DEFAULT_VEHTYPE" speedFactor="0.98" vaporized=""/>
    <tripinfo id="29" depart="44.00" departLane="23318289#2_0" departPos="5.10" departSpeed="0.00" departDelay="0.50" arrival="370.00" arrivalLane="41900276#0_0" arrivalPos="31.21" arrivalSpeed="7.02" duration="326.00" routeLength="1423.66" waitingTime="120.00" waitingCount="5" stopTime="0.00" timeLoss="158.25" rerouteNo="0" devices="tripinfo_29" vType="DEFAULT_VEHTYPE" speedFactor="0.93" vaporized=""/>
    <tripinfo id="16" depart="24.00" departLane="548134627#0_0" departPos="5.10" departSpeed="0.00" departDelay="0.00" arrival="375.00" arrivalLane="31009357_0" arrivalPos="63.80" arrivalSpeed="6.73" duration="351.00" routeLength="872.73" waitingTime="195.00" waitingCount="7" stopTime="0.00" timeLoss="239.38" rerouteNo="0" devices="tripinfo_16" vType="DEFAULT_VEHTYPE" speedFactor="0.88" vaporized=""/>
    <tripinfo id="180" depart="270.00" departLane="45156939#0_0" departPos="5.10" departSpeed="0.00" departDelay="0.00" arrival="375.00" arrivalLane="41276562#3_1" arrivalPos="22.16" arrivalSpeed="14.76" duration="105.00" routeLength="478.60" waitingTime="51.00" waitingCount="2" stopTime="0.00" timeLoss="68.46" rerouteNo="0" devices="tripinfo_180" vType="DEFAULT_VEHTYPE" speedFactor="1.10" vaporized=""/>
    <tripinfo id="172" depart="258.00" departLane="618449786#3_0" departPos="5.10" departSpeed="0.00" departDelay="0.00" arrival="377.00" arrivalLane="-559462245#2_1" arrivalPos="71.43" arrivalSpeed="8.12" duration="119.00" routeLength="383.73" waitingTime="56.00" waitingCount="3" stopTime="0.00" timeLoss="78.11" rerouteNo="0" devices="tripinfo_172" vType="DEFAULT_VEHTYPE" speedFactor="0.89" vaporized=""/>
    <tripinfo id="8" depart="12.00" departLane="532158277#0_0" departPos="5.10" departSpeed="0.00" departDelay="0.00" arrival="380.00" arrivalLane="43128188#0_0" arrivalPos="118.69" arrivalSpeed="7.50" duration="368.00" routeLength="2268.77" waitingTime="117.00" waitingCount="4" stopTime="0.00" timeLoss="158.66" rerouteNo="0" devices="tripinfo_8" vType="DEFAULT_VEHTYPE" speedFactor="0.94" vaporized=""/>
    <tripinfo id="62" depart="93.00" departLane="551944006_0" departPos="5.10" departSpeed="0.00" departDelay="0.00" arrival="381.00" arrivalLane="548134624#0_0" arrivalPos="26.41" arrivalSpeed="13.67" duration="288.00" routeLength="1245.16" waitingTime="118.00" waitingCount="3" stopTime="0.00" timeLoss="148.93" rerouteNo="0" devices="tripinfo_62" vType="DEFAULT_VEHTYPE" speedFactor="1.02" vaporized=""/>
    <tripinfo id="157" depart="236.00" departLane="-1169055177#1_0" departPos="5.10" departSpeed="0.00" departDelay="0.50" arrival="381.00" arrivalLane="4495265#0_0" arrivalPos="49.39" arrivalSpeed="8.38" duration="145.00" routeLength="765.14" waitingTime="59.00" waitingCount="3" stopTime="0.00" timeLoss="89.52" rerouteNo="0" devices="tripinfo_157" vType="DEFAULT_VEHTYPE" speedFactor="1.08" vaporized=""/>