<?xml version="1.0" encoding="UTF-8"?>

<!-- generated on 2025-10-04 19:57:54 by Eclipse SUMO GUI Version 1.24.0
<sumoConfiguration xmlns:xsi="http://www.w3.org/2001/XMLSchema-instance" xsi:noNamespaceSchemaLocation="http://sumo.dlr.de/xsd/sumoConfiguration.xsd">

    <input>
        <net-file value="/Users/nicoloagostara/Desktop/NASA/2025-10-04-17-12-56/osm.net.xml.gz"/>
        <route-files value="/Users/nicoloagostara/Desktop/NASA/2025-10-04-17-12-56/osm.passenger.trips.xml"/>
        <additional-files value="/Users/nicoloagostara/Desktop/NASA/2025-10-04-17-12-56/output.add.xml"/>
    </input>

    <output>
        <tripinfo-output value="/Users/nicoloagostara/Desktop/NASA/2025-10-04-17-12-56/tripinfos.xml"/>
        <statistic-output value="/Users/nicoloagostara/Desktop/NASA/2025-10-04-17-12-56/stats.xml"/>
    </output>

    <processing>
        <ignore-route-errors value="true"/>
        <tls.actuated.jam-threshold value="30"/>
    </processing>

    <routing>
        <device.rerouting.adaptation-steps value="18"/>
        <device.rerouting.adaptation-interval value="10"/>
    </routing>

    <report>
        <verbose value="true"/>
        <duration-log.statistics value="true"/>
        <no-step-log value="true"/>
    </report>

    <gui_only>
        <gui-settings-file value="/Users/nicoloagostara/Desktop/NASA/2025-10-04-17-12-56/osm.view.xml"/>
    </gui_only>

</sumoConfiguration>
-->

<tripinfos xmlns:xsi="http://www.w3.org/2001/XMLSchema-instance" xsi:noNamespaceSchemaLocation="http://sumo.dlr.de/xsd/tripinfo_file.xsd">
    <tripinfo id="veh2" depart="12.00" departLane="134807808#0_0" departPos="5.10" departSpeed="8.42" departDelay="0.28" arrival="71.00" arrivalLane="-1192355872#0_0" arrivalPos="0.20" arrivalSpeed="8.20" duration="59.00" routeLength="441.39" waitingTime="0.00" waitingCount="0" stopTime="0.00" timeLoss="5.66" rerouteNo="1" devices="tripinfo_veh2 routing_veh2" vType="veh_passenger" speedFactor="1.01" vaporized=""/>
    <tripinfo id="veh0" depart="0.00" departLane="-550432836_1" departPos="5.10" departSpeed="0.00" departDelay="0.00" arrival="92.00" arrivalLane="-548370033#0_1" arrivalPos="24.20" arrivalSpeed="13.84" duration="92.00" routeLength="808.69" waitingTime="11.00" waitingCount="1" stopTime="0.00" timeLoss="35.68" rerouteNo="1" devices="tripinfo_veh0 routing_veh0" vType="veh_passenger" speedFactor="1.06" vaporized=""/>
    <tripinfo id="veh8" depart="47.00" departLane="-147759323#3_0" departPos="5.10" departSpeed="0.00" departDelay="0.12" arrival="131.00" arrivalLane="-15677258#0_0" arrivalPos="8.88" arrivalSpeed="7.63" duration="84.00" routeLength="570.62" waitingTime="0.00" waitingCount="0" stopTime="0.00" timeLoss="8.72" rerouteNo="1" devices="tripinfo_veh8 routing_veh8" vType="veh_passenger" speedFactor="0.94" vaporized=""/>
    <tripinfo id="veh12" depart="71.00" departLane="11667106#0_0" departPos="5.10" departSpeed="8.72" departDelay="0.69" arrival="138.00" arrivalLane="28128202#2_1" arrivalPos="0.36" arrivalSpeed="8.56" duration="67.00" routeLength="482.37" waitingTime="5.00" waitingCount="1" stopTime="0.00" timeLoss="14.76" rerouteNo="1" devices="tripinfo_veh12 routing_veh12" vType="veh_passenger" speedFactor="1.05" vaporized=""/>
    <tripinfo id="veh11" depart="65.00" departLane="15801838#0_0" departPos="5.10" departSpeed="0.00" departDelay="0.55" arrival="168.00" arrivalLane="860373108#0_0" arrivalPos="36.33" arrivalSpeed="13.25" duration="103.00" routeLength="782.38" waitingTime="17.00" waitingCount="2" stopTime="0.00" timeLoss="46.25" rerouteNo="1" devices="tripinfo_veh11 routing_veh11" vType="veh_passenger" speedFactor="1.03" vaporized=""/>
    <tripinfo id="veh13" depart="77.00" departLane="526016640#2_0" departPos="5.10" departSpeed="0.00" departDelay="0.83" arrival="177.00" arrivalLane="33694459#1_0" arrivalPos="15.76" arrivalSpeed="15.33" duration="100.00" routeLength="578.54" waitingTime="42.00" waitingCount="2" stopTime="0.00" timeLoss="60.23" rerouteNo="1" devices="tripinfo_veh13 routing_veh13" vType="veh_passenger" speedFactor="1.12" vaporized=""/>
    <tripinfo id="veh6" depart="36.00" departLane="501215198#4_0" departPos="5.10" departSpeed="0.00" departDelay="0.84" arrival="193.00" arrivalLane="4495228#2_0" arrivalPos="28.30" arrivalSpeed="13.35" duration="157.00" routeLength="1416.82" waitingTime="27.00" waitingCount="2" stopTime="0.00" timeLoss="58.00" rerouteNo="1" devices="tripinfo_veh6 routing_veh6" vType="veh_passenger" speedFactor="1.05" vaporized=""/>
    <tripinfo id="veh18" depart="106.00" departLane="-15677258#1_0" departPos="5.10" departSpeed="0.00" departDelay="0.53" arrival="210.00" arrivalLane="-942456034#1_0" arrivalPos="33.92" arrivalSpeed="12.53" duration="104.00" routeLength="936.26" waitingTime="9.00" waitingCount="1" stopTime="0.00" timeLoss="23.95" rerouteNo="1" devices="tripinfo_veh18 routing_veh18" vType="veh_passenger" speedFactor="0.94" vaporized=""/>
    <tripinfo id="veh24" depart="141.00" departLane="20020535#5_0" departPos="5.10" departSpeed="0.00" departDelay="0.37" arrival="218.00" arrivalLane="4440330#0_0" arrivalPos="0.57" arrivalSpeed="11.42" duration="77.00" routeLength="554.02" waitingTime="16.00" waitingCount="1" stopTime="0.00" timeLoss="27.66" rerouteNo="1" devices="tripinfo_veh24 routing_veh24" vType="veh_passenger" speedFactor="0.83" vaporized=""/>
    <tripinfo id="veh4" depart="24.00" departLane="334810149#1_1" departPos="5.10" departSpeed="0.00" departDelay="0.56" arrival="260.00" arrivalLane="27361348#0_0" arrivalPos="131.26" arrivalSpeed="14.11" duration="236.00" routeLength="1726.18" waitingTime="64.00" waitingCount="7" stopTime="0.00" timeLoss="115.31" rerouteNo="1" devices="tripinfo_veh4 routing_veh4" vType="veh_passenger" speedFactor="1.03" vaporized=""/>
    <tripinfo id="veh7" depart="42.00" departLane="10418400#1_0" departPos="5.10" departSpeed="0.00" departDelay="0.98" arrival="261.00" arrivalLane="-332455399#1_0" arrivalPos="0.20" arrivalSpeed="6.28" duration="219.00" routeLength="1512.06" waitingTime="16.00" waitingCount="3" stopTime="0.00" timeLoss="54.32" rerouteNo="1" devices="tripinfo_veh7 routing_veh7" vType="veh_passenger" speedFactor="0.89" vaporized=""/>
    <tripinfo id="veh28" depart="165.00" departLane="548370030#0_1" departPos="5.10" departSpeed="0.00" departDelay="0.94" arrival="263.00" arrivalLane="112168940#1_0" arrivalPos="34.10" arrivalSpeed="9.06" duration="98.00" routeLength="965.51" waitingTime="8.00" waitingCount="1" stopTime="0.00" timeLoss="21.86" rerouteNo="1" devices="tripinfo_veh28 routing_veh28" vType="veh_passenger" speedFactor="1.13" vaporized=""/>
    <tripinfo id="veh3" depart="18.00" departLane="-1113744422#1_0" departPos="5.10" departSpeed="0.00" departDelay="0.42" arrival="267.00" arrivalLane="-4803560#0_0" arrivalPos="31.18" arrivalSpeed="14.97" duration="249.00" routeLength="1713.30" waitingTime="70.00" waitingCount="6" stopTime="0.00" timeLoss="123.86" rerouteNo="1" devices="tripinfo_veh3 routing_veh3" vType="veh_passenger" speedFactor="1.08" vaporized=""/>
    <tripinfo id="veh17" depart="100.00" departLane="-146545821#1_0" departPos="5.10" departSpeed="0.00" departDelay="0.39" arrival="282.00" arrivalLane="-550432841#1_0" arrivalPos="31.00" arrivalSpeed="13.00" duration="182.00" routeLength="1120.55" waitingTime="53.00" waitingCount="5" stopTime="0.00" timeLoss="89.42" rerouteNo="1" devices="tripinfo_veh17 routing_veh17" vType="veh_passenger" speedFactor="0.94" vaporized=""/>
    <tripinfo id="veh37" depart="217.00" departLane="4730408#2_1" departPos="5.10" departSpeed="0.00" departDelay="0.20" arrival="289.00" arrivalLane="146977950#1_0" arrivalPos="0.20" arrivalSpeed="7.92" duration="72.00" routeLength="689.92" waitingTime="3.00" waitingCount="2" stopTime="0.00" timeLoss="28.13" rerouteNo="1" devices="tripinfo_veh37 routing_veh37" vType="veh_passenger" speedFactor="1.18" vaporized=""/>
    <tripinfo id="veh36" depart="211.00" departLane="-218931349#0_1" departPos="5.10" departSpeed="0.00" departDelay="0.06" arrival="295.00" arrivalLane="341018763#2_0" arrivalPos="22.68" arrivalSpeed="12.50" duration="84.00" routeLength="427.83" waitingTime="42.00" waitingCount="1" stopTime="0.00" timeLoss="51.81" rerouteNo="1" devices="tripinfo_veh36 routing_veh36" vType="veh_passenger" speedFactor="0.97" vaporized=""/>
    <tripinfo id="veh9" depart="53.00" departLane="543698047_0" departPos="0.20" departSpeed="0.00" departDelay="0.27" arrival="298.00" arrivalLane="334810150#1_0" arrivalPos="39.61" arrivalSpeed="11.55" duration="245.00" routeLength="1436.77" waitingTime="66.00" waitingCount="6" stopTime="0.00" timeLoss="114.95" rerouteNo="1" devices="tripinfo_veh9 routing_veh9" vType="veh_passenger" speedFactor="0.86" vaporized=""/>
    <tripinfo id="veh10" depart="59.00" departLane="506482101#1_0" departPos="5.10" departSpeed="0.00" departDelay="0.41" arrival="299.00" arrivalLane="4596401#1_0" arrivalPos="10.52" arrivalSpeed="11.07" duration="240.00" routeLength="1432.57" waitingTime="85.00" waitingCount="7" stopTime="0.00" timeLoss="140.97" rerouteNo="1" devices="tripinfo_veh10 routing_veh10" vType="veh_passenger" speedFactor="1.09" vaporized=""/>
    <tripinfo id="veh40" depart="235.00" departLane="-1055373034#5_0" departPos="1.11" departSpeed="14.31" departDelay="0.62" arrival="319.00" arrivalLane="4495265#8_0" arrivalPos="0.20" arrivalSpeed="7.23" duration="84.00" routeLength="706.78" waitingTime="0.00" waitingCount="0" stopTime="0.00" timeLoss="12.31" rerouteNo="1" devices="tripinfo_veh40 routing_veh40" vType="veh_passenger" speedFactor="1.03" vaporized=""/>
    <tripinfo id="veh23" depart="135.00" departLane="-28630236#1_1" departPos="5.10" departSpeed="0.00" departDelay="0.23" arrival="320.00" arrivalLane="1367076582#1_0" arrivalPos="2.58" arrivalSpeed="9.10" duration="185.00" routeLength="1066.80" waitingTime="55.00" waitingCount="4" stopTime="0.00" timeLoss="93.10" rerouteNo="1" devices="tripinfo_veh23 routing_veh23" vType="veh_passenger" speedFactor="0.89" vaporized=""/>
    <tripinfo id="veh5" depart="30.00" departLane="5074558#1_0" departPos="5.10" departSpeed="0.00" departDelay="0.70" arrival="324.00" arrivalLane="-1055373034#4_0" arrivalPos="0.59" arrivalSpeed="8.46" duration="294.00" routeLength="2004.14" waitingTime="66.00" waitingCount="6" stopTime="0.00" timeLoss="116.71" rerouteNo="1" devices="tripinfo_veh5 routing_veh5" vType="veh_passenger" speedFactor="0.83" vaporized=""/>
    <tripinfo id="veh15" depart="88.00" departLane="398028000#1_1" departPos="2.51" departSpeed="0.00" departDelay="0.11" arrival="332.00" arrivalLane="-1344040643_0" arrivalPos="46.24" arrivalSpeed="12.86" duration="244.00" routeLength="1633.67" waitingTime="56.00" waitingCount="5" stopTime="0.00" timeLoss="94.82" rerouteNo="1" devices="tripinfo_veh15 routing_veh15" vType="veh_passenger" speedFactor="0.93" vaporized=""/>
    <tripinfo id="veh43" depart="252.00" departLane="548370030#0_2" departPos="5.10" departSpeed="0.00" departDelay="0.04" arrival="334.00" arrivalLane="-860373105#1_0" arrivalPos="39.35" arrivalSpeed="13.71" duration="82.00" routeLength="634.93" waitingTime="7.00" waitingCount="2" stopTime="0.00" timeLoss="36.81" rerouteNo="1" devices="tripinfo_veh43 routing_veh43" vType="veh_passenger" speedFactor="1.04" vaporized=""/>
    <tripinfo id="veh19" depart="112.00" departLane="332455374#2_1" departPos="0.10" departSpeed="0.00" departDelay="0.67" arrival="338.00" arrivalLane="128840098#1_0" arrivalPos="52.38" arrivalSpeed="8.93" duration="226.00" routeLength="1722.13" waitingTime="51.00" waitingCount="5" stopTime="0.00" timeLoss="92.97" rerouteNo="1" devices="tripinfo_veh19 routing_veh19" vType="veh_passenger" speedFactor="1.16" vaporized=""/>
    <tripinfo id="veh20" depart="118.00" departLane="1163565846#1_1" departPos="5.10" departSpeed="0.00" departDelay="0.81" arrival="350.00" arrivalLane="-536841066_0" arrivalPos="71.59" arrivalSpeed="12.98" duration="232.00" routeLength="1181.65" waitingTime="105.00" waitingCount="6" stopTime="0.00" timeLoss="145.32" rerouteNo="1" devices="tripinfo_veh20 routing_veh20" vType="veh_passenger" speedFactor="1.02" vaporized=""/>
    <tripinfo id="veh1" depart="6.00" departLane="548917388#0_0" departPos="5.10" departSpeed="0.00" departDelay="0.14" arrival="372.00" arrivalLane="-14947682_0" arrivalPos="32.06" arrivalSpeed="6.64" duration="366.00" routeLength="2606.06" waitingTime="73.00" waitingCount="7" stopTime="0.00" timeLoss="135.57" rerouteNo="1" devices="tripinfo_veh1 routing_veh1" vType="veh_passenger" speedFactor="0.94" vaporized=""/>
    <tripinfo id="veh29" depart="170.00" departLane="571372263#0_0" departPos="1.74" departSpeed="7.76" departDelay="0.08" arrival="388.00" arrivalLane="15677510#6_0" arrivalPos="24.72" arrivalSpeed="11.64" duration="218.00" routeLength="1805.47" waitingTime="37.00" waitingCount="3" stopTime="0.00" timeLoss="70.77" rerouteNo="1" devices="tripinfo_veh29 routing_veh29" vType="veh_passenger" speedFactor="0.93" vaporized=""/>
    <tripinfo id="veh32" depart="188.00" departLane="24232445#3_0" departPos="5.10" departSpeed="0.00" departDelay="0.50" arrival="391.00" arrivalLane="576862392#4_0" arrivalPos="87.50" arrivalSpeed="8.05" duration="203.00" routeLength="981.31" waitingTime="81.00" waitingCount="5" stopTime="0.00" timeLoss="113.75" rerouteNo="1" devices="tripinfo_veh32 routing_veh32" vType="veh_passenger" speedFactor="1.01" vaporized=""/>
    <tripinfo id="veh41" depart="241.00" departLane="-218931349#2_1" departPos="5.10" departSpeed="0.00" departDelay="0.76" arrival="402.00" arrivalLane="147759323#1_0" arrivalPos="18.94" arrivalSpeed="7.78" duration="161.00" routeLength="985.53" waitingTime="34.00" waitingCount="4" stopTime="0.00" timeLoss="68.37" rerouteNo="1" devices="tripinfo_veh41 routing_veh41" vType="veh_passenger" speedFactor="0.96" vaporized=""/>
    <tripinfo id="veh25" depart="147.00" departLane="-4596504_0" departPos="0.20" departSpeed="9.69" departDelay="0.51" arrival="409.00" arrivalLane="-1227184777#0_1" arrivalPos="31.79" arrivalSpeed="11.31" duration="262.00" routeLength="1377.25" waitingTime="100.00" waitingCount="3" stopTime="0.00" timeLoss="131.15" rerouteNo="1" devices="tripinfo_veh25 routing_veh25" vType="veh_passenger" speedFactor="0.87" vaporized=""/>
    <tripinfo id="veh52" depart="305.00" departLane="-623571872_0" departPos="0.20" departSpeed="10.69" departDelay="0.31" arrival="427.00" arrivalLane="-145204590#0_1" arrivalPos="15.10" arrivalSpeed="14.08" duration="122.00" routeLength="886.53" waitingTime="14.00" waitingCount="2" stopTime="0.00" timeLoss="28.65" rerouteNo="1" devices="tripinfo_veh52 routing_veh52" vType="veh_passenger" speedFactor="1.02" vaporized=""/>
    <tripinfo id="veh27" depart="159.00" departLane="-4440330#0_0" departPos="0.57" departSpeed="0.00" departDelay="0.80" arrival="440.00" arrivalLane="722646198_0" arrivalPos="13.34" arrivalSpeed="7.26" duration="281.00" routeLength="1819.13" waitingTime="77.00" waitingCount="6" stopTime="0.00" timeLoss="133.89" rerouteNo="1" devices="tripinfo_veh27 routing_veh27" vType="veh_passenger" speedFactor="0.95" vaporized=""/>
    <tripinfo id="veh21" depart="124.00" departLane="-548370033#1_1" departPos="0.96" departSpeed="0.00" departDelay="0.95" arrival="447.00" arrivalLane="64659700_0" arrivalPos="249.49" arrivalSpeed="7.81" duration="323.00" routeLength="2974.73" waitingTime="29.00" waitingCount="6" stopTime="0.00" timeLoss="85.23" rerouteNo="1" devices="tripinfo_veh21 routing_veh21" vType="veh_passenger" speedFactor="1.01" vaporized=""/>
    <tripinfo id="veh16" depart="94.00" departLane="-4576428#1_0" departPos="5.10" departSpeed="12.20" departDelay="0.25" arrival="465.00" arrivalLane="10418321#1_0" arrivalPos="20.88" arrivalSpeed="6.72" duration="371.00" routeLength="2174.51" waitingTime="82.00" waitingCount="10" stopTime="0.00" timeLoss="155.42" rerouteNo="1" devices="tripinfo_veh16 routing_veh16" vType="veh_passenger" speedFactor="0.88" vaporized=""/>
    <tripinfo id="veh30" depart="176.00" departLane="-548370032_1" departPos="5.10" departSpeed="0.00" departDelay="0.22" arrival="465.00" arrivalLane="-5772335#2_0" arrivalPos="41.32" arrivalSpeed="8.72" duration="289.00" routeLength="1905.27" waitingTime="100.00" waitingCount="6" stopTime="0.00" timeLoss="152.57" rerouteNo="1" devices="tripinfo_veh30 routing_veh30" vType="veh_passenger" speedFactor="1.18" vaporized=""/>
    <tripinfo id="veh38" depart="223.00" departLane="-13949345#2_0" departPos="5.10" departSpeed="0.00" departDelay="0.34" arrival="473.00" arrivalLane="138424023#2_1" arrivalPos="41.80" arrivalSpeed="14.75" duration="250.00" routeLength="1539.67" waitingTime="102.00" waitingCount="4" stopTime="0.00" timeLoss="143.07" rerouteNo="1" devices="tripinfo_veh38 routing_veh38" vType="veh_passenger" speedFactor="1.10" vaporized=""/>
    <tripinfo id="veh48" depart="282.00" departLane="4495229#4_0" departPos="2.58" departSpeed="0.00" departDelay="0.75" arrival="476.00" arrivalLane="27361257_1" arrivalPos="129.02" arrivalSpeed="11.79" duration="194.00" routeLength="1521.03" waitingTime="37.00" waitingCount="2" stopTime="0.00" timeLoss="62.50" rerouteNo="1" devices="tripinfo_veh48 routing_veh48" vType="veh_passenger" speedFactor="0.88" vaporized=""/>
    <tripinfo id="veh31" depart="182.00" departLane="218931349#1_1" departPos="5.10" departSpeed="0.00" departDelay="0.36" arrival="479.00" arrivalLane="-860373105#1_0" arrivalPos="39.35" arrivalSpeed="15.50" duration="297.00" routeLength="2027.40" waitingTime="93.00" waitingCount="9" stopTime="0.00" timeLoss="169.13" rerouteNo="1" devices="tripinfo_veh31 routing_veh31" vType="veh_passenger" speedFactor="1.15" vaporized=""/>
    <tripinfo id="veh44" depart="258.00" departLane="147692714_0" departPos="5.10" departSpeed="0.00" departDelay="0.19" arrival="494.00" arrivalLane="-4393002#7_0" arrivalPos="40.68" arrivalSpeed="14.01" duration="236.00" routeLength="1614.54" waitingTime="49.00" waitingCount="4" stopTime="0.00" timeLoss="101.20" rerouteNo="1" devices="tripinfo_veh44 routing_veh44" vType="veh_passenger" speedFactor="1.04" vaporized=""/>
    <tripinfo id="veh47" depart="276.00" departLane="28128202#1_0" departPos="5.10" departSpeed="0.00" departDelay="0.61" arrival="495.00" arrivalLane="-332455382#0_0" arrivalPos="0.74" arrivalSpeed="7.07" duration="219.00" routeLength="1306.82" waitingTime="43.00" waitingCount="4" stopTime="0.00" timeLoss="83.40" rerouteNo="1" devices="tripinfo_veh47 routing_veh47" vType="veh_passenger" speedFactor="0.90" vaporized=""/>
    <tripinfo id="veh22" depart="129.00" departLane="-31020419#2_0" departPos="5.10" departSpeed="13.54" departDelay="0.09" arrival="497.00" arrivalLane="4592657#1_0" arrivalPos="54.05" arrivalSpeed="7.06" duration="368.00" routeLength="2472.34" waitingTime="84.00" waitingCount="8" stopTime="0.00" timeLoss="162.51" rerouteNo="1" devices="tripinfo_veh22 routing_veh22" vType="veh_passenger" speedFactor="0.97" vaporized=""/>
    <tripinfo id="veh69" depart="405.00" departLane="601313558#0_0" departPos="5.10" departSpeed="0.00" departDelay="0.70" arrival="508.00" arrivalLane="31020072#1_0" arrivalPos="168.50" arrivalSpeed="8.09" duration="103.00" routeLength="789.04" waitingTime="15.00" waitingCount="1" stopTime="0.00" timeLoss="28.49" rerouteNo="1" devices="tripinfo_veh69 routing_veh69" vType="veh_passenger" speedFactor="1.02" vaporized=""/>
    <tripinfo id="veh74" depart="434.00" departLane="4376121#0_0" departPos="5.10" departSpeed="13.27" departDelay="0.40" arrival="516.00" arrivalLane="43815227#1_0" arrivalPos="20.41" arrivalSpeed="7.50" duration="82.00" routeLength="674.38" waitingTime="0.00" waitingCount="0" stopTime="0.00" timeLoss="6.99" rerouteNo="1" devices="tripinfo_veh74 routing_veh74" vType="veh_passenger" speedFactor="0.96" vaporized=""/>
    <tripinfo id="veh76" depart="446.00" departLane="11943595#1_0" departPos="5.10" departSpeed="0.00" departDelay="0.68" arrival="524.00" arrivalLane="11916106#0_0" arrivalPos="27.49" arrivalSpeed="7.42" duration="78.00" routeLength="523.01" waitingTime="26.00" waitingCount="1" stopTime="0.00" timeLoss="38.85" rerouteNo="1" devices="tripinfo_veh76 routing_veh76" vType="veh_passenger" speedFactor="1.03" vaporized=""/>
    <tripinfo id="veh26" depart="153.00" departLane="-82086620#1_0" departPos="5.10" departSpeed="0.00" departDelay="0.65" arrival="525.00" arrivalLane="-86145639#0_0" arrivalPos="18.95" arrivalSpeed="11.46" duration="372.00" routeLength="2064.76" waitingTime="121.00" waitingCount="7" stopTime="0.00" timeLoss="180.24" rerouteNo="1" devices="tripinfo_veh26 routing_veh26" vType="veh_passenger" speedFactor="0.92" vaporized=""/>
    <tripinfo id="veh35" depart="206.00" departLane="-147692716#1_0" departPos="0.77" departSpeed="0.00" departDelay="0.92" arrival="528.00" arrivalLane="-134807808#0_0" arrivalPos="73.42" arrivalSpeed="7.90" duration="322.00" routeLength="2783.20" waitingTime="37.00" waitingCount="4" stopTime="0.00" timeLoss="89.40" rerouteNo="1" devices="tripinfo_veh35 routing_veh35" vType="veh_passenger" speedFactor="1.02" vaporized=""/>
    <tripinfo id="veh51" depart="299.00" departLane="548370032_1" departPos="5.10" departSpeed="0.00" departDelay="0.17" arrival="528.00" arrivalLane="548134623#1_0" arrivalPos="30.48" arrivalSpeed="15.04" duration="229.00" routeLength="1520.69" waitingTime="82.00" waitingCount="4" stopTime="0.00" timeLoss="125.67" rerouteNo="1" devices="tripinfo_veh51 routing_veh51" vType="veh_passenger" speedFactor="1.17" vaporized=""/>
    <tripinfo id="veh33" depart="194.00" departLane="11917063_0" departPos="5.10" departSpeed="9.76" departDelay="0.64" arrival="530.00" arrivalLane="-548134627#1_1" arrivalPos="46.50" arrivalSpeed="15.94" duration="336.00" routeLength="2331.66" waitingTime="111.00" waitingCount="6" stopTime="0.00" timeLoss="178.02" rerouteNo="1" devices="tripinfo_veh33 routing_veh33" vType="veh_passenger" speedFactor="1.17" vaporized=""/>
    <tripinfo id="veh66" depart="387.00" departLane="544415712#2_0" departPos="5.10" departSpeed="0.00" departDelay="0.28" arrival="534.00" arrivalLane="-146778074#0_0" arrivalPos="38.07" arrivalSpeed="6.98" duration="147.00" routeLength="1396.89" waitingTime="0.00" waitingCount="0" stopTime="0.00" timeLoss="15.71" rerouteNo="1" devices="tripinfo_veh66 routing_veh66" vType="veh_passenger" speedFactor="0.91" vaporized=""/>
    <tripinfo id="veh45" depart="264.00" departLane="565560611#2_0" departPos="5.10" departSpeed="0.00" departDelay="0.33" arrival="535.00" arrivalLane="559462241#1_0" arrivalPos="1.17" arrivalSpeed="8.26" duration="271.00" routeLength="2137.07" waitingTime="61.00" waitingCount="6" stopTime="0.00" timeLoss="114.57" rerouteNo="1" devices="tripinfo_veh45 routing_veh45" vType="veh_passenger" speedFactor="1.09" vaporized=""/>
    <tripinfo id="veh54" depart="317.00" departLane="-1411243431_1" departPos="5.10" departSpeed="13.93" departDelay="0.59" arrival="546.00" arrivalLane="5074558#1_1" arrivalPos="51.54" arrivalSpeed="12.74" duration="229.00" routeLength="1614.99" waitingTime="53.00" waitingCount="9" stopTime="0.00" timeLoss="110.27" rerouteNo="1" devices="tripinfo_veh54 routing_veh54" vType="veh_passenger" speedFactor="1.00" vaporized=""/>
    <tripinfo id="veh59" depart="346.00" departLane="15801863#1_0" departPos="5.10" departSpeed="0.00" departDelay="0.29" arrival="547.00" arrivalLane="4596401#1_0" arrivalPos="10.52" arrivalSpeed="9.83" duration="201.00" routeLength="1272.07" waitingTime="48.00" waitingCount="5" stopTime="0.00" timeLoss="99.74" rerouteNo="1" devices="tripinfo_veh59 routing_veh59" vType="veh_passenger" speedFactor="0.97" vaporized=""/>
    <tripinfo id="veh60" depart="352.00" departLane="-4398888#1_1" departPos="5.10" departSpeed="15.04" departDelay="0.43" arrival="547.00" arrivalLane="10750844#1_1" arrivalPos="19.20" arrivalSpeed="13.51" duration="195.00" routeLength="1209.24" waitingTime="74.00" waitingCount="5" stopTime="0.00" timeLoss="111.88" rerouteNo="1" devices="tripinfo_veh60 routing_veh60" vType="veh_passenger" speedFactor="1.08" vaporized=""/>
    <tripinfo id="veh67" depart="393.00" departLane="-5183081#1_2" departPos="5.10" departSpeed="0.00" departDelay="0.42" arrival="548.00" arrivalLane="4376124_0" arrivalPos="80.30" arrivalSpeed="11.85" duration="155.00" routeLength="1155.34" waitingTime="44.00" waitingCount="2" stopTime="0.00" timeLoss="63.42" rerouteNo="1" devices="tripinfo_veh67 routing_veh67" vType="veh_passenger" speedFactor="0.91" vaporized=""/>
    <tripinfo id="veh14" depart="83.00" departLane="546792881#0_0" departPos="5.10" departSpeed="0.00" departDelay="0.97" arrival="553.00" arrivalLane="32120551_0" arrivalPos="45.41" arrivalSpeed="5.48" duration="470.00" routeLength="2412.67" waitingTime="185.00" waitingCount="8" stopTime="0.00" timeLoss="265.12" rerouteNo="1" devices="tripinfo_veh14 routing_veh14" vType="veh_passenger" speedFactor="0.99" vaporized=""/>
    <tripinfo id="veh56" depart="329.00" departLane="145204590#1_0" departPos="5.10" departSpeed="0.00" departDelay="0.87" arrival="556.00" arrivalLane="27405403#0_0" arrivalPos="70.48" arrivalSpeed="11.54" duration="227.00" routeLength="1695.65" waitingTime="32.00" waitingCount="4" stopTime="0.00" timeLoss="80.77" rerouteNo="1" devices="tripinfo_veh56 routing_veh56" vType="veh_passenger" speedFactor="0.90" vaporized=""/>
    <tripinfo id="veh46" depart="270.00" departLane="-5944809_0" departPos="5.10" departSpeed="12.70" departDelay="0.47" arrival="563.00" arrivalLane="374407129#3_0" arrivalPos="9.31" arrivalSpeed="8.35" duration="293.00" routeLength="1546.85" waitingTime="127.00" waitingCount="8" stopTime="0.00" timeLoss="178.22" rerouteNo="1" devices="tripinfo_veh46 routing_veh46" vType="veh_passenger" speedFactor="1.00" vaporized=""/>
    <tripinfo id="veh63" depart="370.00" departLane="10418288#2_0" departPos="1.07" departSpeed="0.00" departDelay="0.86" arrival="563.00" arrivalLane="332455377#8_0" arrivalPos="11.22" arrivalSpeed="7.67" duration="193.00" routeLength="1367.49" waitingTime="46.00" waitingCount="3" stopTime="0.00" timeLoss="79.01" rerouteNo="1" devices="tripinfo_veh63 routing_veh63" vType="veh_passenger" speedFactor="0.99" vaporized=""/>
    <tripinfo id="veh49" depart="288.00" departLane="4576428#1_0" departPos="5.10" departSpeed="0.00" departDelay="0.89" arrival="566.00" arrivalLane="26127384#1_0" arrivalPos="7.98" arrivalSpeed="6.51" duration="278.00" routeLength="1945.52" waitingTime="22.00" waitingCount="5" stopTime="0.00" timeLoss="73.08" rerouteNo="1" devices="tripinfo_veh49 routing_veh49" vType="veh_passenger" speedFactor="0.85" vaporized=""/>
    <tripinfo id="veh64" depart="375.00" departLane="-4596504_0" departPos="0.20" departSpeed="10.42" departDelay="0.00" arrival="570.00" arrivalLane="-548134627#1_1" arrivalPos="46.50" arrivalSpeed="11.90" duration="195.00" routeLength="1425.25" waitingTime="40.00" waitingCount="3" stopTime="0.00" timeLoss="69.49" rerouteNo="1" devices="tripinfo_veh64 routing_veh64" vType="veh_passenger" speedFactor="0.94" vaporized=""/>
    <tripinfo id="veh84" depart="493.00" departLane="543888804#0_2" departPos="5.10" departSpeed="0.00" departDelay="0.81" arrival="582.00" arrivalLane="-374546587#1_0" arrivalPos="70.75" arrivalSpeed="15.29" duration="89.00" routeLength="809.88" waitingTime="3.00" waitingCount="1" stopTime="0.00" timeLoss="34.91" rerouteNo="1" devices="tripinfo_veh84 routing_veh84" vType="veh_passenger" speedFactor="1.15" vaporized=""/>
    <tripinfo id="veh42" depart="247.00" departLane="13952186#0_0" departPos="5.10" departSpeed="9.10" departDelay="0.90" arrival="590.00" arrivalLane="7972686#0_1" arrivalPos="37.61" arrivalSpeed="13.98" duration="343.00" routeLength="2245.78" waitingTime="114.00" waitingCount="6" stopTime="0.00" timeLoss="177.71" rerouteNo="1" devices="tripinfo_veh42 routing_veh42" vType="veh_passenger" speedFactor="1.09" vaporized=""/>
    <tripinfo id="veh83" depart="487.00" departLane="860373105#0_0" departPos="5.10" departSpeed="0.00" departDelay="0.67" arrival="601.00" arrivalLane="6068757_0" arrivalPos="227.31" arrivalSpeed="13.32" duration="114.00" routeLength="963.50" waitingTime="7.00" waitingCount="2" stopTime="0.00" timeLoss="28.25" rerouteNo="1" devices="tripinfo_veh83 routing_veh83" vType="veh_passenger" speedFactor="0.97" vaporized=""/>
    <tripinfo id="veh65" depart="381.00" departLane="-4596504_0" departPos="0.20" departSpeed="9.80" departDelay="0.14" arrival="631.00" arrivalLane="5772335#3_0" arrivalPos="12.32" arrivalSpeed="6.94" duration="250.00" routeLength="1390.93" waitingTime="76.00" waitingCount="4" stopTime="0.00" timeLoss="114.86" rerouteNo="1" devices="tripinfo_veh65 routing_veh65" vType="veh_passenger" speedFactor="0.88" vaporized=""/>
    <tripinfo id="veh87" depart="510.00" departLane="-548370033#0_1" departPos="5.10" departSpeed="0.00" departDelay="0.23" arrival="633.00" arrivalLane="526016652#1_0" arrivalPos="47.63" arrivalSpeed="13.43" duration="123.00" routeLength="753.32" waitingTime="45.00" waitingCount="3" stopTime="0.00" timeLoss="69.36" rerouteNo="1" devices="tripinfo_veh87 routing_veh87" vType="veh_passenger" speedFactor="1.04" vaporized=""/>
    <tripinfo id="veh75" depart="440.00" departLane="92142136_1" departPos="5.10" departSpeed="0.00" departDelay="0.54" arrival="642.00" arrivalLane="-15677510#1_0" arrivalPos="31.54" arrivalSpeed="12.76" duration="202.00" routeLength="1468.23" waitingTime="43.00" waitingCount="6" stopTime="0.00" timeLoss="92.46" rerouteNo="1" devices="tripinfo_veh75 routing_veh75" vType="veh_passenger" speedFactor="0.98" vaporized=""/>
    <tripinfo id="veh34" depart="200.00" departLane="975977035#1_0" departPos="5.10" departSpeed="0.00" departDelay="0.78" arrival="643.00" arrivalLane="24232446#3_0" arrivalPos="20.40" arrivalSpeed="7.35" duration="443.00" routeLength="2645.42" waitingTime="144.00" waitingCount="7" stopTime="0.00" timeLoss="223.93" rerouteNo="1" devices="tripinfo_veh34 routing_veh34" vType="veh_passenger" speedFactor="0.99" vaporized=""/>