<?xml version="1.0" encoding="UTF-8"?>

<!-- generated on 2025-10-04 15:09:38 by Eclipse SUMO GUI Version 1.24.0
<sumoConfiguration xmlns:xsi="http://www.w3.org/2001/XMLSchema-instance" xsi:noNamespaceSchemaLocation="http://sumo.dlr.de/xsd/sumoConfiguration.xsd">

    <input>
        <net-file value="/Users/nicoloagostara/Sumo/2025-10-04-15-09-10/osm.net.xml.gz"/>
        <route-files value="/Users/nicoloagostara/Sumo/2025-10-04-15-09-10/osm.passenger.trips.xml"/>
        <additional-files value="/Users/nicoloagostara/Sumo/2025-10-04-15-09-10/output.add.xml"/>
    </input>

    <output>
        <tripinfo-output value="/Users/nicoloagostara/Sumo/2025-10-04-15-09-10/tripinfos.xml"/>
        <statistic-output value="/Users/nicoloagostara/Sumo/2025-10-04-15-09-10/stats.xml"/>
    </output>

    <processing>
        <ignore-route-errors value="true"/>
        <tls.actuated.jam-threshold value="30"/>
    </processing>

    <routing>
        <device.rerouting.adaptation-steps value="18"/>
        <device.rerouting.adaptation-interval value="10"/>
    </routing>

    <report>
        <verbose value="true"/>
        <duration-log.statistics value="true"/>
        <no-step-log value="true"/>
    </report>

    <gui_only>
        <gui-settings-file value="/Users/nicoloagostara/Sumo/2025-10-04-15-09-10/osm.view.xml"/>
    </gui_only>

</sumoConfiguration>
-->

<tripinfos xmlns:xsi="http://www.w3.org/2001/XMLSchema-instance" xsi:noNamespaceSchemaLocation="http://sumo.dlr.de/xsd/tripinfo_file.xsd">
    <tripinfo id="veh0" depart="0.00" departLane="-332455382#1_0" departPos="5.10" departSpeed="8.83" departDelay="0.00" arrival="44.00" arrivalLane="15801838#0_0" arrivalPos="19.37" arrivalSpeed="14.32" duration="44.00" routeLength="366.12" waitingTime="0.00" waitingCount="0" stopTime="0.00" timeLoss="5.16" rerouteNo="1" devices="tripinfo_veh0 routing_veh0" vType="veh_passenger" speedFactor="1.06" vaporized=""/>
    <tripinfo id="veh1" depart="96.00" departLane="-35162766_0" departPos="5.10" departSpeed="13.03" departDelay="0.89" arrival="213.00" arrivalLane="332455382#1_0" arrivalPos="141.51" arrivalSpeed="6.75" duration="117.00" routeLength="613.98" waitingTime="44.00" waitingCount="2" stopTime="0.00" timeLoss="61.42" rerouteNo="1" devices="tripinfo_veh1 routing_veh1" vType="veh_passenger" speedFactor="0.94" vaporized=""/>
    <tripinfo id="veh2" depart="191.00" departLane="10418288#0_0" departPos="5.10" departSpeed="8.42" departDelay="0.78" arrival="287.00" arrivalLane="4572161#1_0" arrivalPos="36.92" arrivalSpeed="13.15" duration="96.00" routeLength="524.67" waitingTime="42.00" waitingCount="1" stopTime="0.00" timeLoss="51.94" rerouteNo="1" devices="tripinfo_veh2 routing_veh2" vType="veh_passenger" speedFactor="1.01" vaporized=""/>
    <tripinfo id="veh2.1" depart="193.00" departLane="10418288#0_0" departPos="5.10" departSpeed="7.70" departDelay="2.78" arrival="288.00" arrivalLane="4572161#1_0" arrivalPos="36.92" arrivalSpeed="14.43" duration="95.00" routeLength="524.67" waitingTime="40.00" waitingCount="1" stopTime="0.00" timeLoss="54.40" rerouteNo="1" devices="tripinfo_veh2.1 routing_veh2.1" vType="veh_passenger" speedFactor="1.08" vaporized=""/>
    <tripinfo id="veh2.2" depart="195.00" departLane="10418288#0_0" departPos="5.10" departSpeed="7.07" departDelay="4.78" arrival="291.00" arrivalLane="4572161#1_0" arrivalPos="36.92" arrivalSpeed="13.06" duration="96.00" routeLength="524.67" waitingTime="38.00" waitingCount="1" stopTime="0.00" timeLoss="53.11" rerouteNo="1" devices="tripinfo_veh2.2 routing_veh2.2" vType="veh_passenger" speedFactor="1.03" vaporized=""/>
    <tripinfo id="veh2.3" depart="197.00" departLane="10418288#0_0" departPos="5.10" departSpeed="6.92" departDelay="6.78" arrival="294.00" arrivalLane="4572161#1_0" arrivalPos="36.92" arrivalSpeed="11.14" duration="97.00" routeLength="524.67" waitingTime="28.00" waitingCount="2" stopTime="0.00" timeLoss="43.84" rerouteNo="1" devices="tripinfo_veh2.3 routing_veh2.3" vType="veh_passenger" speedFactor="0.83" vaporized=""/>
    <tripinfo id="veh2.4" depart="199.00" departLane="10418288#0_0" departPos="5.10" departSpeed="5.90" departDelay="8.78" arrival="296.00" arrivalLane="4572161#1_0" arrivalPos="36.92" arrivalSpeed="14.02" duration="97.00" routeLength="524.67" waitingTime="26.00" waitingCount="2" stopTime="0.00" timeLoss="54.11" rerouteNo="1" devices="tripinfo_veh2.4 routing_veh2.4" vType="veh_passenger" speedFactor="1.05" vaporized=""/>
    <tripinfo id="veh2.5" depart="201.00" departLane="10418288#0_0" departPos="5.10" departSpeed="5.07" departDelay="10.78" arrival="298.00" arrivalLane="4572161#1_0" arrivalPos="36.92" arrivalSpeed="11.41" duration="97.00" routeLength="524.67" waitingTime="24.00" waitingCount="2" stopTime="0.00" timeLoss="46.89" rerouteNo="1" devices="tripinfo_veh2.5 routing_veh2.5" vType="veh_passenger" speedFactor="0.89" vaporized=""/>
    <tripinfo id="veh2.6" depart="203.00" departLane="10418288#0_0" departPos="5.10" departSpeed="3.31" departDelay="12.78" arrival="299.00" arrivalLane="4572161#1_0" arrivalPos="36.92" arrivalSpeed="12.85" duration="96.00" routeLength="524.67" waitingTime="23.00" waitingCount="2" stopTime="0.00" timeLoss="49.01" rerouteNo="1" devices="tripinfo_veh2.6 routing_veh2.6" vType="veh_passenger" speedFactor="0.94" vaporized=""/>
    <tripinfo id="veh2.7" depart="206.00" departLane="10418288#0_0" departPos="5.10" departSpeed="4.54" departDelay="15.78" arrival="301.00" arrivalLane="4572161#1_0" arrivalPos="36.92" arrivalSpeed="11.51" duration="95.00" routeLength="524.67" waitingTime="21.00" waitingCount="1" stopTime="0.00" timeLoss="44.00" rerouteNo="1" devices="tripinfo_veh2.7 routing_veh2.7" vType="veh_passenger" speedFactor="0.86" vaporized=""/>
    <tripinfo id="veh2.8" depart="208.00" departLane="10418288#0_0" departPos="5.10" departSpeed="1.52" departDelay="17.78" arrival="303.00" arrivalLane="4572161#1_0" arrivalPos="36.92" arrivalSpeed="14.53" duration="95.00" routeLength="524.67" waitingTime="24.00" waitingCount="2" stopTime="0.00" timeLoss="54.30" rerouteNo="1" devices="tripinfo_veh2.8 routing_veh2.8" vType="veh_passenger" speedFactor="1.09" vaporized=""/>
    <tripinfo id="veh2.9" depart="211.00" departLane="10418288#0_0" departPos="5.10" departSpeed="2.05" departDelay="20.78" arrival="305.00" arrivalLane="4572161#1_0" arrivalPos="36.92" arrivalSpeed="13.46" duration="94.00" routeLength="524.67" waitingTime="26.00" waitingCount="2" stopTime="0.00" timeLoss="50.59" rerouteNo="1" devices="tripinfo_veh2.9 routing_veh2.9" vType="veh_passenger" speedFactor="1.03" vaporized=""/>
    <tripinfo id="veh2.10" depart="214.00" departLane="10418288#0_0" departPos="5.10" departSpeed="5.11" departDelay="23.78" arrival="306.00" arrivalLane="4572161#1_0" arrivalPos="36.92" arrivalSpeed="13.76" duration="92.00" routeLength="524.67" waitingTime="22.00" waitingCount="1" stopTime="0.00" timeLoss="50.10" rerouteNo="1" devices="tripinfo_veh2.10 routing_veh2.10" vType="veh_passenger" speedFactor="1.05" vaporized=""/>
    <tripinfo id="veh2.22" depart="244.00" departLane="10418288#0_0" departPos="5.10" departSpeed="2.02" departDelay="53.78" arrival="309.00" arrivalLane="4572161#1_0" arrivalPos="36.92" arrivalSpeed="11.22" duration="65.00" routeLength="524.67" waitingTime="0.00" waitingCount="0" stopTime="0.00" timeLoss="11.30" rerouteNo="1" devices="tripinfo_veh2.22 routing_veh2.22" vType="veh_passenger" speedFactor="0.83" vaporized=""/>
    <tripinfo id="veh2.11" depart="216.00" departLane="10418288#0_0" departPos="5.10" departSpeed="5.04" departDelay="25.78" arrival="311.00" arrivalLane="4572161#1_0" arrivalPos="36.92" arrivalSpeed="14.99" duration="95.00" routeLength="524.67" waitingTime="21.00" waitingCount="1" stopTime="0.00" timeLoss="55.29" rerouteNo="1" devices="tripinfo_veh2.11 routing_veh2.11" vType="veh_passenger" speedFactor="1.12" vaporized=""/>
    <tripinfo id="veh2.23" depart="247.00" departLane="10418288#0_0" departPos="5.10" departSpeed="2.36" departDelay="56.78" arrival="313.00" arrivalLane="4572161#1_0" arrivalPos="36.92" arrivalSpeed="12.11" duration="66.00" routeLength="524.67" waitingTime="0.00" waitingCount="0" stopTime="0.00" timeLoss="15.11" rerouteNo="1" devices="tripinfo_veh2.23 routing_veh2.23" vType="veh_passenger" speedFactor="0.87" vaporized=""/>
    <tripinfo id="veh2.12" depart="218.00" departLane="10418288#0_0" departPos="5.10" departSpeed="3.58" departDelay="27.78" arrival="314.00" arrivalLane="4572161#1_0" arrivalPos="36.92" arrivalSpeed="13.63" duration="96.00" routeLength="524.67" waitingTime="20.00" waitingCount="1" stopTime="0.00" timeLoss="51.69" rerouteNo="1" devices="tripinfo_veh2.12 routing_veh2.12" vType="veh_passenger" speedFactor="0.99" vaporized=""/>
    <tripinfo id="veh2.13" depart="220.00" departLane="10418288#0_0" departPos="5.10" departSpeed="0.83" departDelay="29.78" arrival="316.00" arrivalLane="4572161#1_0" arrivalPos="36.92" arrivalSpeed="11.66" duration="96.00" routeLength="524.67" waitingTime="19.00" waitingCount="1" stopTime="0.00" timeLoss="48.78" rerouteNo="1" devices="tripinfo_veh2.13 routing_veh2.13" vType="veh_passenger" speedFactor="0.93" vaporized=""/>
    <tripinfo id="veh2.14" depart="223.00" departLane="10418288#0_0" departPos="5.10" departSpeed="1.83" departDelay="32.78" arrival="318.00" arrivalLane="4572161#1_0" arrivalPos="36.92" arrivalSpeed="11.69" duration="95.00" routeLength="524.67" waitingTime="19.00" waitingCount="1" stopTime="0.00" timeLoss="44.83" rerouteNo="1" devices="tripinfo_veh2.14 routing_veh2.14" vType="veh_passenger" speedFactor="0.88" vaporized=""/>
    <tripinfo id="veh2.15" depart="226.00" departLane="10418288#0_0" departPos="5.10" departSpeed="4.07" departDelay="35.78" arrival="320.00" arrivalLane="4572161#1_0" arrivalPos="36.92" arrivalSpeed="12.13" duration="94.00" routeLength="524.67" waitingTime="17.00" waitingCount="1" stopTime="0.00" timeLoss="47.24" rerouteNo="1" devices="tripinfo_veh2.15 routing_veh2.15" vType="veh_passenger" speedFactor="0.94" vaporized=""/>
    <tripinfo id="veh2.16" depart="228.00" departLane="10418288#0_0" departPos="5.10" departSpeed="1.52" departDelay="37.78" arrival="322.00" arrivalLane="4572161#1_0" arrivalPos="36.92" arrivalSpeed="12.41" duration="94.00" routeLength="524.67" waitingTime="16.00" waitingCount="1" stopTime="0.00" timeLoss="46.74" rerouteNo="1" devices="tripinfo_veh2.16 routing_veh2.16" vType="veh_passenger" speedFactor="0.94" vaporized=""/>
    <tripinfo id="veh2.25" depart="253.00" departLane="10418288#0_0" departPos="5.10" departSpeed="5.14" departDelay="62.78" arrival="324.00" arrivalLane="4572161#1_0" arrivalPos="36.92" arrivalSpeed="12.72" duration="71.00" routeLength="524.67" waitingTime="8.00" waitingCount="1" stopTime="0.00" timeLoss="24.25" rerouteNo="1" devices="tripinfo_veh2.25 routing_veh2.25" vType="veh_passenger" speedFactor="0.95" vaporized=""/>
    <tripinfo id="veh2.17" depart="231.00" departLane="10418288#0_0" departPos="5.10" departSpeed="0.42" departDelay="40.78" arrival="325.00" arrivalLane="4572161#1_0" arrivalPos="36.92" arrivalSpeed="14.28" duration="94.00" routeLength="524.67" waitingTime="16.00" waitingCount="1" stopTime="0.00" timeLoss="56.20" rerouteNo="1" devices="tripinfo_veh2.17 routing_veh2.17" vType="veh_passenger" speedFactor="1.16" vaporized=""/>
    <tripinfo id="veh2.26" depart="255.00" departLane="10418288#0_0" departPos="5.10" departSpeed="3.87" departDelay="64.78" arrival="327.00" arrivalLane="4572161#1_0" arrivalPos="36.92" arrivalSpeed="14.64" duration="72.00" routeLength="524.67" waitingTime="6.00" waitingCount="1" stopTime="0.00" timeLoss="33.00" rerouteNo="1" devices="tripinfo_veh2.26 routing_veh2.26" vType="veh_passenger" speedFactor="1.13" vaporized=""/>
    <tripinfo id="veh2.27" depart="258.00" departLane="10418288#0_0" departPos="5.10" departSpeed="4.68" departDelay="67.78" arrival="329.00" arrivalLane="4572161#1_0" arrivalPos="36.92" arrivalSpeed="12.54" duration="71.00" routeLength="524.67" waitingTime="4.00" waitingCount="1" stopTime="0.00" timeLoss="23.41" rerouteNo="1" devices="tripinfo_veh2.27 routing_veh2.27" vType="veh_passenger" speedFactor="0.93" vaporized=""/>
    <tripinfo id="veh2.18" depart="235.00" departLane="10418288#0_0" departPos="5.10" departSpeed="6.40" departDelay="44.78" arrival="331.00" arrivalLane="4572161#1_0" arrivalPos="36.92" arrivalSpeed="13.70" duration="96.00" routeLength="524.67" waitingTime="16.00" waitingCount="1" stopTime="0.00" timeLoss="52.02" rerouteNo="1" devices="tripinfo_veh2.18 routing_veh2.18" vType="veh_passenger" speedFactor="1.02" vaporized=""/>
    <tripinfo id="veh2.28" depart="260.00" departLane="10418288#0_0" departPos="5.10" departSpeed="3.60" departDelay="69.78" arrival="338.00" arrivalLane="4572161#1_0" arrivalPos="36.92" arrivalSpeed="12.08" duration="78.00" routeLength="524.67" waitingTime="3.00" waitingCount="1" stopTime="0.00" timeLoss="40.84" rerouteNo="1" devices="tripinfo_veh2.28 routing_veh2.28" vType="veh_passenger" speedFactor="1.18" vaporized=""/>
    <tripinfo id="veh2.24" depart="250.00" departLane="10418288#0_0" departPos="5.10" departSpeed="3.06" departDelay="59.78" arrival="340.00" arrivalLane="4572161#1_0" arrivalPos="36.92" arrivalSpeed="12.03" duration="90.00" routeLength="524.67" waitingTime="7.00" waitingCount="1" stopTime="0.00" timeLoss="42.07" rerouteNo="1" devices="tripinfo_veh2.24 routing_veh2.24" vType="veh_passenger" speedFactor="0.92" vaporized=""/>
    <tripinfo id="veh2.29" depart="263.00" departLane="10418288#0_0" departPos="5.10" departSpeed="4.80" departDelay="72.78" arrival="386.00" arrivalLane="4572161#1_0" arrivalPos="36.92" arrivalSpeed="15.14" duration="123.00" routeLength="524.67" waitingTime="52.00" waitingCount="3" stopTime="0.00" timeLoss="84.81" rerouteNo="1" devices="tripinfo_veh2.29 routing_veh2.29" vType="veh_passenger" speedFactor="1.15" vaporized=""/>
    <tripinfo id="veh2.30" depart="266.00" departLane="10418288#0_0" departPos="5.10" departSpeed="4.96" departDelay="75.78" arrival="388.00" arrivalLane="4572161#1_0" arrivalPos="36.92" arrivalSpeed="12.73" duration="122.00" routeLength="524.67" waitingTime="49.00" waitingCount="3" stopTime="0.00" timeLoss="77.84" rerouteNo="1" devices="tripinfo_veh2.30 routing_veh2.30" vType="veh_passenger" speedFactor="1.01" vaporized=""/>
    <tripinfo id="veh2.42" depart="299.00" departLane="10418288#0_0" departPos="5.10" departSpeed="7.10" departDelay="108.78" arrival="391.00" arrivalLane="4572161#1_0" arrivalPos="36.92" arrivalSpeed="13.74" duration="92.00" routeLength="524.67" waitingTime="16.00" waitingCount="5" stopTime="0.00" timeLoss="49.29" rerouteNo="1" devices="tripinfo_veh2.42 routing_veh2.42" vType="veh_passenger" speedFactor="1.04" vaporized=""/>
    <tripinfo id="veh2.19" depart="237.00" departLane="10418288#0_0" departPos="5.10" departSpeed="6.17" departDelay="46.78" arrival="394.00" arrivalLane="4572161#1_0" arrivalPos="36.92" arrivalSpeed="13.26" duration="157.00" routeLength="524.67" waitingTime="67.00" waitingCount="6" stopTime="0.00" timeLoss="112.96" rerouteNo="1" devices="tripinfo_veh2.19 routing_veh2.19" vType="veh_passenger" speedFactor="1.01" vaporized=""/>
    <tripinfo id="veh2.31" depart="268.00" departLane="10418288#0_0" departPos="5.10" departSpeed="0.79" departDelay="77.78" arrival="396.00" arrivalLane="4572161#1_0" arrivalPos="36.92" arrivalSpeed="15.34" duration="128.00" routeLength="524.67" waitingTime="42.00" waitingCount="2" stopTime="0.00" timeLoss="89.79" rerouteNo="1" devices="tripinfo_veh2.31 routing_veh2.31" vType="veh_passenger" speedFactor="1.17" vaporized=""/>
    <tripinfo id="veh2.43" depart="301.00" departLane="10418288#0_0" departPos="5.10" departSpeed="5.92" departDelay="110.78" arrival="398.00" arrivalLane="4572161#1_0" arrivalPos="36.92" arrivalSpeed="14.88" duration="97.00" routeLength="524.67" waitingTime="22.00" waitingCount="5" stopTime="0.00" timeLoss="56.28" rerouteNo="1" devices="tripinfo_veh2.43 routing_veh2.43" vType="veh_passenger" speedFactor="1.09" vaporized=""/>
    <tripinfo id="veh3.3" depart="290.00" departLane="334810149#0_0" departPos="5.10" departSpeed="6.69" departDelay="4.67" arrival="400.00" arrivalLane="4572161#1_0" arrivalPos="36.92" arrivalSpeed="14.27" duration="110.00" routeLength="384.23" waitingTime="51.00" waitingCount="4" stopTime="0.00" timeLoss="83.94" rerouteNo="1" devices="tripinfo_veh3.3 routing_veh3.3" vType="veh_passenger" speedFactor="1.07" vaporized=""/>
    <tripinfo id="veh2.20" depart="239.00" departLane="10418288#0_0" departPos="5.10" departSpeed="6.10" departDelay="48.78" arrival="403.00" arrivalLane="4572161#1_0" arrivalPos="36.92" arrivalSpeed="12.43" duration="164.00" routeLength="524.67" waitingTime="62.00" waitingCount="7" stopTime="0.00" timeLoss="118.98" rerouteNo="1" devices="tripinfo_veh2.20 routing_veh2.20" vType="veh_passenger" speedFactor="0.97" vaporized=""/>
    <tripinfo id="veh2.21" depart="241.00" departLane="10418288#0_0" departPos="5.10" departSpeed="4.09" departDelay="50.78" arrival="406.00" arrivalLane="4572161#1_0" arrivalPos="36.92" arrivalSpeed="11.58" duration="165.00" routeLength="524.67" waitingTime="63.00" waitingCount="5" stopTime="0.00" timeLoss="115.01" rerouteNo="1" devices="tripinfo_veh2.21 routing_veh2.21" vType="veh_passenger" speedFactor="0.89" vaporized=""/>
    <tripinfo id="veh3.5" depart="293.00" departLane="334810149#0_0" departPos="5.10" departSpeed="3.47" departDelay="7.67" arrival="408.00" arrivalLane="4572161#1_0" arrivalPos="36.92" arrivalSpeed="13.25" duration="115.00" routeLength="384.23" waitingTime="57.00" waitingCount="5" stopTime="0.00" timeLoss="87.55" rerouteNo="1" devices="tripinfo_veh3.5 routing_veh3.5" vType="veh_passenger" speedFactor="1.03" vaporized=""/>
    <tripinfo id="veh2.32" depart="271.00" departLane="10418288#0_0" departPos="5.10" departSpeed="1.00" departDelay="80.78" arrival="410.00" arrivalLane="4572161#1_0" arrivalPos="36.92" arrivalSpeed="12.55" duration="139.00" routeLength="524.67" waitingTime="45.00" waitingCount="3" stopTime="0.00" timeLoss="94.37" rerouteNo="1" devices="tripinfo_veh2.32 routing_veh2.32" vType="veh_passenger" speedFactor="0.99" vaporized=""/>
    <tripinfo id="veh2.33" depart="274.00" departLane="10418288#0_0" departPos="5.10" departSpeed="0.42" departDelay="83.78" arrival="412.00" arrivalLane="4572161#1_0" arrivalPos="36.92" arrivalSpeed="13.86" duration="138.00" routeLength="524.67" waitingTime="42.00" waitingCount="2" stopTime="0.00" timeLoss="94.11" rerouteNo="1" devices="tripinfo_veh2.33 routing_veh2.33" vType="veh_passenger" speedFactor="1.02" vaporized=""/>
    <tripinfo id="veh2.34" depart="278.00" departLane="10418288#0_0" departPos="5.10" departSpeed="4.68" departDelay="87.78" arrival="413.00" arrivalLane="4572161#1_0" arrivalPos="36.92" arrivalSpeed="13.17" duration="135.00" routeLength="524.67" waitingTime="40.00" waitingCount="1" stopTime="0.00" timeLoss="89.87" rerouteNo="1" devices="tripinfo_veh2.34 routing_veh2.34" vType="veh_passenger" speedFactor="0.97" vaporized=""/>
    <tripinfo id="veh2.41" depart="297.00" departLane="10418288#0_0" departPos="5.10" departSpeed="6.02" departDelay="106.78" arrival="415.00" arrivalLane="4572161#1_0" arrivalPos="36.92" arrivalSpeed="13.65" duration="118.00" routeLength="524.67" waitingTime="35.00" waitingCount="2" stopTime="0.00" timeLoss="75.62" rerouteNo="1" devices="tripinfo_veh2.41 routing_veh2.41" vType="veh_passenger" speedFactor="1.04" vaporized=""/>
    <tripinfo id="veh3.9" depart="302.00" departLane="334810149#0_0" departPos="5.10" departSpeed="5.83" departDelay="16.67" arrival="419.00" arrivalLane="4572161#1_0" arrivalPos="36.92" arrivalSpeed="11.43" duration="117.00" routeLength="384.23" waitingTime="51.00" waitingCount="6" stopTime="0.00" timeLoss="84.49" rerouteNo="1" devices="tripinfo_veh3.9 routing_veh3.9" vType="veh_passenger" speedFactor="0.87" vaporized=""/>
    <tripinfo id="veh2.47" depart="311.00" departLane="10418288#0_0" departPos="5.10" departSpeed="3.72" departDelay="120.78" arrival="421.00" arrivalLane="4572161#1_0" arrivalPos="36.92" arrivalSpeed="11.21" duration="110.00" routeLength="524.67" waitingTime="31.00" waitingCount="2" stopTime="0.00" timeLoss="58.37" rerouteNo="1" devices="tripinfo_veh2.47 routing_veh2.47" vType="veh_passenger" speedFactor="0.85" vaporized=""/>
    <tripinfo id="veh2.48" depart="314.00" departLane="10418288#0_0" departPos="5.10" departSpeed="5.35" departDelay="123.78" arrival="423.00" arrivalLane="4572161#1_0" arrivalPos="36.92" arrivalSpeed="11.72" duration="109.00" routeLength="524.67" waitingTime="30.00" waitingCount="2" stopTime="0.00" timeLoss="57.41" rerouteNo="1" devices="tripinfo_veh2.48 routing_veh2.48" vType="veh_passenger" speedFactor="0.85" vaporized=""/>
    <tripinfo id="veh2.40" depart="293.00" departLane="10418288#0_0" departPos="5.10" departSpeed="0.37" departDelay="102.78" arrival="425.00" arrivalLane="4572161#1_0" arrivalPos="36.92" arrivalSpeed="14.09" duration="132.00" routeLength="524.67" waitingTime="58.00" waitingCount="3" stopTime="0.00" timeLoss="91.43" rerouteNo="1" devices="tripinfo_veh2.40 routing_veh2.40" vType="veh_passenger" speedFactor="1.09" vaporized=""/>
    <tripinfo id="veh2.49" depart="316.00" departLane="10418288#0_0" departPos="5.10" departSpeed="2.42" departDelay="125.78" arrival="427.00" arrivalLane="4572161#1_0" arrivalPos="36.92" arrivalSpeed="15.85" duration="111.00" routeLength="524.67" waitingTime="31.00" waitingCount="2" stopTime="0.00" timeLoss="72.70" rerouteNo="1" devices="tripinfo_veh2.49 routing_veh2.49" vType="veh_passenger" speedFactor="1.17" vaporized=""/>
    <tripinfo id="veh2.35" depart="280.00" departLane="10418288#0_0" departPos="5.10" departSpeed="2.91" departDelay="89.78" arrival="428.00" arrivalLane="4572161#1_0" arrivalPos="36.92" arrivalSpeed="16.12" duration="148.00" routeLength="524.67" waitingTime="60.00" waitingCount="3" stopTime="0.00" timeLoss="110.58" rerouteNo="1" devices="tripinfo_veh2.35 routing_veh2.35" vType="veh_passenger" speedFactor="1.18" vaporized=""/>
    <tripinfo id="veh2.36" depart="283.00" departLane="10418288#0_0" departPos="5.10" departSpeed="4.67" departDelay="92.78" arrival="430.00" arrivalLane="4572161#1_0" arrivalPos="36.92" arrivalSpeed="14.16" duration="147.00" routeLength="524.67" waitingTime="48.00" waitingCount="4" stopTime="0.00" timeLoss="106.72" rerouteNo="1" devices="tripinfo_veh2.36 routing_veh2.36" vType="veh_passenger" speedFactor="1.10" vaporized=""/>
    <tripinfo id="veh2.37" depart="285.00" departLane="10418288#0_0" departPos="5.10" departSpeed="2.77" departDelay="94.78" arrival="439.00" arrivalLane="4572161#1_0" arrivalPos="36.92" arrivalSpeed="12.31" duration="154.00" routeLength="524.67" waitingTime="47.00" waitingCount="5" stopTime="0.00" timeLoss="104.43" rerouteNo="1" devices="tripinfo_veh2.37 routing_veh2.37" vType="veh_passenger" speedFactor="0.90" vaporized=""/>
    <tripinfo id="veh2.38" depart="287.00" departLane="10418288#0_0" departPos="5.10" departSpeed="0.71" departDelay="96.78" arrival="441.00" arrivalLane="4572161#1_0" arrivalPos="36.92" arrivalSpeed="14.23" duration="154.00" routeLength="524.67" waitingTime="46.00" waitingCount="4" stopTime="0.00" timeLoss="110.89" rerouteNo="1" devices="tripinfo_veh2.38 routing_veh2.38" vType="veh_passenger" speedFactor="1.03" vaporized=""/>
    <tripinfo id="veh2.51" depart="323.00" departLane="10418288#0_0" departPos="5.10" departSpeed="0.77" departDelay="132.78" arrival="486.00" arrivalLane="4572161#1_0" arrivalPos="36.92" arrivalSpeed="14.81" duration="163.00" routeLength="524.67" waitingTime="86.00" waitingCount="5" stopTime="0.00" timeLoss="122.46" rerouteNo="1" devices="tripinfo_veh2.51 routing_veh2.51" vType="veh_passenger" speedFactor="1.10" vaporized=""/>
    <tripinfo id="veh2.44" depart="303.00" departLane="10418288#0_0" departPos="5.10" departSpeed="4.14" departDelay="112.78" arrival="488.00" arrivalLane="4572161#1_0" arrivalPos="36.92" arrivalSpeed="12.92" duration="185.00" routeLength="524.67" waitingTime="88.00" waitingCount="5" stopTime="0.00" timeLoss="140.70" rerouteNo="1" devices="tripinfo_veh2.44 routing_veh2.44" vType="veh_passenger" speedFactor="1.00" vaporized=""/>
    <tripinfo id="veh2.58" depart="341.00" departLane="10418288#0_0" departPos="5.10" departSpeed="3.95" departDelay="150.78" arrival="491.00" arrivalLane="4572161#1_0" arrivalPos="36.92" arrivalSpeed="13.88" duration="150.00" routeLength="524.67" waitingTime="56.00" waitingCount="9" stopTime="0.00" timeLoss="108.94" rerouteNo="1" devices="tripinfo_veh2.58 routing_veh2.58" vType="veh_passenger" speedFactor="1.08" vaporized=""/>
    <tripinfo id="veh2.52" depart="326.00" departLane="10418288#0_0" departPos="5.10" departSpeed="1.78" departDelay="135.78" arrival="493.00" arrivalLane="4572161#1_0" arrivalPos="36.92" arrivalSpeed="13.18" duration="167.00" routeLength="524.67" waitingTime="81.00" waitingCount="6" stopTime="0.00" timeLoss="122.82" rerouteNo="1" devices="tripinfo_veh2.52 routing_veh2.52" vType="veh_passenger" speedFactor="1.00" vaporized=""/>
    <tripinfo id="veh2.55" depart="334.00" departLane="10418288#0_0" departPos="5.10" departSpeed="4.49" departDelay="143.78" arrival="495.00" arrivalLane="4572161#1_0" arrivalPos="36.92" arrivalSpeed="14.69" duration="161.00" routeLength="524.67" waitingTime="66.00" waitingCount="7" stopTime="0.00" timeLoss="122.25" rerouteNo="1" devices="tripinfo_veh2.55 routing_veh2.55" vType="veh_passenger" speedFactor="1.14" vaporized=""/>
    <tripinfo id="veh3.11" depart="306.00" departLane="334810149#0_0" departPos="5.10" departSpeed="0.61" departDelay="20.67" arrival="498.00" arrivalLane="4572161#1_0" arrivalPos="36.92" arrivalSpeed="13.75" duration="192.00" routeLength="384.23" waitingTime="123.00" waitingCount="11" stopTime="0.00" timeLoss="164.02" rerouteNo="1" devices="tripinfo_veh3.11 routing_veh3.11" vType="veh_passenger" speedFactor="1.01" vaporized=""/>
    <tripinfo id="veh3.17" depart="361.00" departLane="334810149#0_0" departPos="5.10" departSpeed="0.26" departDelay="75.67" arrival="500.00" arrivalLane="4572161#1_0" arrivalPos="36.92" arrivalSpeed="14.65" duration="139.00" routeLength="384.23" waitingTime="87.00" waitingCount="8" stopTime="0.00" timeLoss="112.38" rerouteNo="1" devices="tripinfo_veh3.17 routing_veh3.17" vType="veh_passenger" speedFactor="1.07" vaporized=""/>
    <tripinfo id="veh2.39" depart="290.00" departLane="10418288#0_0" departPos="5.10" departSpeed="0.63" departDelay="99.78" arrival="503.00" arrivalLane="4572161#1_0" arrivalPos="36.92" arrivalSpeed="12.55" duration="213.00" routeLength="524.67" waitingTime="80.00" waitingCount="7" stopTime="0.00" timeLoss="166.88" rerouteNo="1" devices="tripinfo_veh2.39 routing_veh2.39" vType="veh_passenger" speedFactor="0.96" vaporized=""/>
    <tripinfo id="veh3.14" depart="326.00" departLane="334810149#0_0" departPos="5.10" departSpeed="0.83" departDelay="40.67" arrival="505.00" arrivalLane="4572161#1_0" arrivalPos="36.92" arrivalSpeed="16.13" duration="179.00" routeLength="384.23" waitingTime="85.00" waitingCount="15" stopTime="0.00" timeLoss="154.57" rerouteNo="1" devices="tripinfo_veh3.14 routing_veh3.14" vType="veh_passenger" speedFactor="1.18" vaporized=""/>
    <tripinfo id="veh2.57" depart="339.00" departLane="10418288#0_0" departPos="5.10" departSpeed="4.73" departDelay="148.78" arrival="507.00" arrivalLane="4572161#1_0" arrivalPos="36.92" arrivalSpeed="12.65" duration="168.00" routeLength="524.67" waitingTime="69.00" waitingCount="5" stopTime="0.00" timeLoss="122.20" rerouteNo="1" devices="tripinfo_veh2.57 routing_veh2.57" vType="veh_passenger" speedFactor="0.97" vaporized=""/>
    <tripinfo id="veh2.45" depart="305.00" departLane="10418288#0_0" departPos="5.10" departSpeed="2.63" departDelay="114.78" arrival="509.00" arrivalLane="4572161#1_0" arrivalPos="36.92" arrivalSpeed="11.22" duration="204.00" routeLength="524.67" waitingTime="74.00" waitingCount="6" stopTime="0.00" timeLoss="154.74" rerouteNo="1" devices="tripinfo_veh2.45 routing_veh2.45" vType="veh_passenger" speedFactor="0.90" vaporized=""/>
    <tripinfo id="veh3.16" depart="334.00" departLane="334810149#0_0" departPos="5.10" departSpeed="2.07" departDelay="48.67" arrival="511.00" arrivalLane="4572161#1_0" arrivalPos="36.92" arrivalSpeed="12.54" duration="177.00" routeLength="384.23" waitingTime="81.00" waitingCount="16" stopTime="0.00" timeLoss="148.52" rerouteNo="1" devices="tripinfo_veh3.16 routing_veh3.16" vType="veh_passenger" speedFactor="0.99" vaporized=""/>
    <tripinfo id="veh2.46" depart="308.00" departLane="10418288#0_0" departPos="5.10" departSpeed="1.59" departDelay="117.78" arrival="513.00" arrivalLane="4572161#1_0" arrivalPos="36.92" arrivalSpeed="11.50" duration="205.00" routeLength="524.67" waitingTime="69.00" waitingCount="8" stopTime="0.00" timeLoss="154.96" rerouteNo="1" devices="tripinfo_veh2.46 routing_veh2.46" vType="veh_passenger" speedFactor="0.88" vaporized=""/>
    <tripinfo id="veh3.19" depart="374.00" departLane="334810149#0_0" departPos="5.10" departSpeed="1.04" departDelay="88.67" arrival="515.00" arrivalLane="4572161#1_0" arrivalPos="36.92" arrivalSpeed="15.01" duration="141.00" routeLength="384.23" waitingTime="52.00" waitingCount="12" stopTime="0.00" timeLoss="115.26" rerouteNo="1" devices="tripinfo_veh3.19 routing_veh3.19" vType="veh_passenger" speedFactor="1.10" vaporized=""/>
    <tripinfo id="veh3.1" depart="287.00" departLane="334810149#0_0" departPos="5.10" departSpeed="10.14" departDelay="1.67" arrival="517.00" arrivalLane="4572161#1_0" arrivalPos="36.92" arrivalSpeed="12.32" duration="230.00" routeLength="384.23" waitingTime="114.00" waitingCount="11" stopTime="0.00" timeLoss="200.42" rerouteNo="1" devices="tripinfo_veh3.1 routing_veh3.1" vType="veh_passenger" speedFactor="0.95" vaporized=""/>